# vtk DataFile Version 4.1
Generated by LIGGGHTS
ASCII
DATASET POLYDATA
POINTS 1000 float
0.000582455 -0.02635 0.0023173 0.00256612 -0.0243906 0.00170439 0.00591525 -0.0160328 0.00151183 
0.00212372 -0.0132696 0.00151064 0.00497053 -0.0133444 0.00170682 0.00777241 -0.0138759 0.00154312 
0.0165117 -0.0126466 0.00187012 0.0219259 -0.0129106 0.00148184 -0.00393444 -0.0122543 0.00150362 
0.00242419 -0.0104495 0.00166195 0.00528567 -0.0104924 0.00151225 0.00814841 -0.0104276 0.00153172 
0.0109948 -0.0103597 0.00148656 0.0135978 -0.0115187 0.00150765 0.0192439 -0.011929 0.00156874 
0.0228844 -0.0103862 0.00241009 -0.0443957 -0.00920405 0.00196436 -0.0418091 -0.00803593 0.00171078 
-0.00637594 -0.00763067 0.00147697 -0.0045298 -0.00959926 0.00236878 -0.000373764 -0.0099092 0.00152998 
0.00384556 -0.00800101 0.00161403 0.00668693 -0.00799987 0.00165769 0.00952774 -0.00790539 0.00151344 
0.0123376 -0.00790913 0.00206628 0.0149312 -0.00901041 0.00150794 0.0202713 -0.00930989 0.00195158 
0.0253507 -0.0090752 0.00184274 0.0281495 -0.0094802 0.00148912 0.0321915 -0.00790727 0.00153176 
-0.0441116 -0.00635783 0.00180181 -0.00358222 -0.00703098 0.00152247 -0.000780022 -0.00714994 0.00208228 
0.00801194 -0.00547634 0.0015409 0.0129249 -0.00517466 0.00148837 0.0155561 -0.00624179 0.00151083 
0.0181139 -0.00750029 0.00148205 0.023685 -0.00676126 0.00181741 0.0270705 -0.00682449 0.00150348 
0.0312233 -0.0052242 0.00165392 -0.000901412 -0.0027227 0.0014793 0.00628489 -0.00319773 0.00152155 
0.0111269 -0.00299016 0.00182109 0.017499 -0.00416659 0.00149233 0.0201907 -0.00376564 0.00228509 
0.0229285 -0.00402006 0.00157275 0.0257077 -0.00436406 0.00205002 0.0285091 -0.00435434 0.00152117 
-0.00493869 -0.000458453 0.00207388 -0.00211559 -0.00031045 0.00240546 0.0040245 -0.00144385 0.00154031 
0.00666461 -0.000367192 0.0015114 0.0140029 -0.000156443 0.00198207 0.0175156 -0.00132099 0.00146706 
0.022591 -0.00117875 0.00160444 0.0347741 -0.00194889 0.00169755 4.03977e-05 -0.0235825 0.0027651 
0.00338633 -0.0155198 0.00270364 0.00560672 -0.0173264 0.0040419 0.00217477 -0.0135373 0.00435845 
0.00632942 -0.0145653 0.00391619 0.00909055 -0.012873 0.00385363 0.0145362 -0.0133779 0.0037833 
0.000743731 -0.0111143 0.00385962 0.00397691 -0.0113804 0.00386757 0.00702018 -0.0110434 0.00456187 
0.0118698 -0.0123911 0.00359095 0.0100788 -0.01022 0.00417985 0.01737 -0.0100139 0.00260073 
0.0181562 -0.0122568 0.00417733 0.0212472 -0.012006 0.00408876 -0.0460409 -0.00750455 0.00355609 
-0.0432612 -0.00775428 0.00415175 -0.00546763 -0.00759881 0.00418044 -0.00267197 -0.00816367 0.00397011 
0.0025718 -0.00889941 0.00404925 0.0135215 -0.00909716 0.00437531 0.0160121 -0.00781269 0.00386058 
0.0188377 -0.00810776 0.0041557 0.0214362 -0.00919764 0.00455388 0.0242742 -0.00898139 0.00448195 
0.0270955 -0.00904818 0.00410229 0.0306714 -0.0100125 0.00272038 -0.00744813 -0.00573369 0.00329174 
-0.000361882 -0.00679395 0.00489965 -0.00241695 -0.00534968 0.00353412 0.00280217 -0.00610665 0.0034594 
0.00591055 -0.00690336 0.00418014 0.0135955 -0.00626963 0.0040442 0.0191983 -0.00527829 0.00449257 
0.0210994 -0.00681346 0.00300814 0.0243385 -0.00612712 0.0045277 0.0271871 -0.00620154 0.00427845 
0.0296291 -0.00735825 0.0026662 0.0319928 -0.00656891 0.00404878 -0.00591291 -0.00344802 0.00405566 
-0.00346268 -0.00281386 0.00273135 -0.00109254 -0.00256798 0.00430521 0.000340851 -0.00471911 0.0030828 
0.00173093 -0.0027659 0.00462037 0.00417995 -0.00359016 0.0034151 0.00861868 -0.00318721 0.00314302 
0.0132003 -0.00343842 0.00372162 0.0158259 -0.00451804 0.00377854 0.0180384 -0.0027256 0.00388477 
0.0212182 -0.00330772 0.00490642 0.0239759 -0.00332961 0.00412245 0.0267446 -0.00267059 0.00409855 
0.0297005 -0.00486012 0.00405239 0.0305351 -0.00259107 0.00250384 -0.00750207 -0.00161867 0.00254858 
0.000650478 -0.000785121 0.00288573 0.0062973 -0.00174851 0.00397513 0.0132395 -0.000217253 0.00473959 
0.0165682 -0.000254652 0.00390764 0.02001 -0.000971563 0.00280236 0.0286596 -0.000663912 0.00345326 
0.0324363 -0.00119392 0.00412033 0.00406986 -0.0153774 0.00546269 0.00528351 -0.0128358 0.00593522 
0.00809901 -0.0142434 0.00614414 0.0108797 -0.0136207 0.00596596 -0.00293594 -0.0104022 0.00735859 
-0.000360664 -0.0122806 0.00622087 0.00234275 -0.0113633 0.0062033 0.0105693 -0.010947 0.00688021 
0.0133101 -0.0121247 0.00603441 0.0174131 -0.01236 0.00692242 0.0196764 -0.010812 0.00613534 
0.0243696 -0.0104508 0.00692633 -0.00520144 -0.00766136 0.00702605 -0.000821513 -0.00952251 0.0056477 
-0.00234735 -0.00762064 0.00711746 0.00164928 -0.00865974 0.00675916 0.00499878 -0.00926669 0.00550266 
0.00893231 -0.00784068 0.00529826 0.0115478 -0.00833649 0.00629516 0.0170661 -0.00994417 0.00543062 
0.0150204 -0.00844234 0.00671061 0.0217806 -0.00933908 0.00738098 0.0244532 -0.00759148 0.006972 
-0.00441157 -0.00534307 0.00556657 0.00161413 -0.00580834 0.00672038 0.0042302 -0.00520806 0.00575649 
0.00650735 -0.00646621 0.0069273 0.0114832 -0.00551015 0.00580812 0.0217039 -0.00602029 0.00566057 
0.0272284 -0.00684043 0.00706129 -0.00839634 -0.0044022 0.00561399 -0.00604229 -0.00342718 0.00691374 
-0.00365277 -0.00259951 0.00557151 -0.0017167 -0.0046139 0.00618826 0.00320831 -0.00288392 0.00706317 
0.00685302 -0.00434282 0.00505938 0.0094557 -0.00348953 0.00586642 0.0125148 -0.00291528 0.00642204 
0.0145999 -0.00486151 0.00632111 0.0191688 -0.00368507 0.00686949 0.0232467 -0.00393004 0.00681859 
0.0259637 -0.00445704 0.00617765 0.028757 -0.00442281 0.00671436 -0.0101981 -0.000492646 0.00681235 
-0.00767175 -0.00165567 0.00539495 5.47809e-05 -0.00249096 0.00691668 0.00657579 -0.000276082 0.00638805 
0.015137 -0.00221207 0.00542172 0.0176881 -0.0013085 0.00632931 0.0225725 -0.00120959 0.00627346 
0.0271571 -0.00211668 0.00727286 0.0300794 -0.00232322 0.00530124 0.00356954 -0.0129798 0.00821384 
0.00611384 -0.0140674 0.00888731 0.00887873 -0.0147816 0.00884879 0.0111133 -0.0130023 0.00875383 
0.00300158 -0.0102296 0.00873281 0.00547379 -0.0113745 0.00960666 0.00741268 -0.0118871 0.00758384 
0.0118089 -0.0102729 0.00935741 0.0166784 -0.0107836 0.00917538 0.021077 -0.0119512 0.00833169 
-0.01877 -0.00918142 0.00978633 -0.00446077 -0.00909104 0.00938647 8.01916e-05 -0.00905161 0.00911552 
0.00610621 -0.00884528 0.00845676 0.00958733 -0.00874584 0.0083622 0.0130444 -0.00779053 0.00865724 
0.0157927 -0.00788245 0.00940527 0.0193084 -0.00972547 0.00874828 -0.00963846 -0.00502233 0.00917377 
-0.00727351 -0.00584561 0.00780417 -0.00312855 -0.00657949 0.00965712 -0.000609572 -0.00584056 0.00851122 
0.00388537 -0.0072006 0.00776646 0.00646709 -0.00590926 0.00970284 0.00927015 -0.00605623 0.00751047 
0.0199113 -0.00719581 0.0075555 0.0224289 -0.00616222 0.00841056 -0.00865157 -0.00268456 0.00786527 
-0.00710767 -0.00393258 0.00992006 -0.00378249 -0.00402325 0.00856046 -0.000559226 -0.00283453 0.009677 
0.00358997 -0.00353573 0.00982187 0.00742566 -0.00392921 0.00783974 0.0101592 -0.00358376 0.00863454 
0.0126303 -0.0049879 0.00837633 0.0125187 -0.00262512 0.00996503 0.0165715 -0.00329623 0.00804033 
0.0187595 -0.00267127 0.00975743 0.0255982 -0.00382276 0.00895044 -0.0104438 -0.00125332 0.00955613 
-0.00515785 -0.00150303 0.00882123 -0.00245184 -0.00158033 0.00794163 0.0010739 -0.000646802 0.00884536 
0.00550498 -0.00192365 0.00845793 0.0143391 -0.0015045 0.00807381 0.0168999 -0.000639859 0.00899982 
0.020145 -0.00115622 0.0077801 0.0246256 -0.00123563 0.00825944 0.0298738 -0.00221926 0.00815217 
0.00419507 -0.0135497 0.0109422 -0.00921642 -0.0105454 0.0121809 0.00820438 -0.0106242 0.0100198 
0.0143508 -0.010008 0.0106433 0.000775453 -0.00941991 0.0118538 0.00243734 -0.00782395 0.0101534 
0.00778745 -0.00801238 0.0110984 0.0108592 -0.00797758 0.010789 0.0132106 -0.00807689 0.012408 
0.0178279 -0.00900197 0.011075 0.0217724 -0.00989633 0.0101756 -0.000691483 -0.0071012 0.0110613 
0.00217785 -0.0057945 0.0121537 0.00922905 -0.00566004 0.010346 0.0140519 -0.00599662 0.010643 
0.0166298 -0.00651977 0.0117704 0.0190315 -0.00656109 0.0102045 0.0231261 -0.00747497 0.0108477 
-0.00309617 -0.00426393 0.0113264 -0.000331156 -0.00443614 0.0120228 0.00491134 -0.00499877 0.011888 
0.00734013 -0.00362723 0.0111642 0.0101542 -0.00320367 0.0114667 0.0174189 -0.00379635 0.0120091 
0.0153524 -0.00251641 0.0105164 0.02077 -0.00482642 0.01167 0.0234139 -0.00464377 0.0106011 
0.00159129 -0.00238687 0.0115036 0.00499128 -0.00215828 0.0119013 0.00745938 -0.000790327 0.0115535 
0.0215694 -0.00248647 0.0102443 0.0122813 -0.00172777 0.01267 -0.0289081 -0.0191955 0.0183349 
-0.009493 0.000128127 0.00149886 -0.00754988 0.00202954 0.0023783 -0.00356094 0.00197652 0.00149441 
0.016417 0.00130621 0.00152539 0.0215209 0.0013875 0.00225336 0.0328222 0.000133378 0.00161445 
0.0355942 0.000786715 0.00173792 -0.0101198 0.00290511 0.00148797 -0.00562795 0.00394967 0.00148524 
0.0160647 0.00405009 0.00224727 0.0249365 0.00313036 0.00149345 0.0273603 0.0042738 0.0024715 
0.0336315 0.00278316 0.00230681 -0.0119682 0.00724928 0.00199403 -0.00635703 0.00673198 0.00154305 
0.000352399 0.00601682 0.00151881 0.011355 0.00689996 0.0015039 0.0182642 0.00570764 0.00150654 
0.0281278 0.00700966 0.00223966 0.0308803 0.00625382 0.00230092 0.0345145 0.00543942 0.00172291 
-0.0320501 0.00943043 0.00202277 -0.00373236 0.00989746 0.00221633 0.00116652 0.00874804 0.00152158 
0.00891018 0.00847767 0.00150165 0.0114279 0.00974764 0.00159224 0.0264388 0.00996746 0.00157086 
0.0331376 0.00794093 0.00186584 -0.0120547 0.0101073 0.00205129 -0.00988207 0.0118938 0.00150246 
-0.00714653 0.0113547 0.00217096 -0.00104569 0.0105552 0.00146634 0.00351628 0.0102118 0.00220405 
0.0062234 0.0109643 0.00155901 0.00906762 0.011349 0.00161365 0.0139502 0.0110247 0.00191639 
0.0192025 0.011855 0.00197161 0.0240445 0.0114491 0.00198914 0.0292726 0.0103133 0.00145861 
0.031095 0.0124456 0.00186665 -0.0115508 0.014089 0.00227061 -0.00884192 0.0145609 0.0014977 
0.00418755 0.0129416 0.00186684 0.00952433 0.0141638 0.00185851 0.0167907 0.013302 0.00148447 
[...]
POINT_DATA 1000
FIELD FieldData 7
id 1 1000 int
24 10 49 266 25 280 297 3 18 
263 22 12 290 285 53 27 83 29 
302 36 282 268 251 277 295 37 48 
21 9 141 23 17 2 16 50 30 
46 15 39 247 43 104 38 33 7 
19 274 309 191 107 235 6 378 138 
164 248 41 254 1 252 52 262 504 
298 256 535 301 520 56 296 272 40 
51 270 58 306 258 13 45 294 264 
260 32 259 253 28 287 278 31 273 
4 281 305 34 65 304 205 54 47 
303 308 44 8 5 42 289 261 527 
292 279 291 11 35 434 67 14 554 
689 26 267 551 558 761 509 531 555 
544 543 501 533 549 524 525 508 548 
552 526 257 518 521 503 293 534 283 
528 286 284 767 507 506 276 255 510 
265 275 300 269 556 307 530 788 804 
529 536 158 299 288 547 807 511 515 
810 773 766 769 787 789 774 782 751 
20 768 765 776 755 516 797 546 784 
502 757 522 540 542 532 538 512 519 
794 523 505 764 545 539 517 557 513 
790 752 792 806 541 648 537 271 550 
514 809 801 775 216 805 802 781 796 
808 777 795 786 803 778 798 553 758 
791 800 763 759 753 762 783 793 780 
754 772 785 779 756 799 770 760 57 
193 339 102 55 186 136 160 357 199 
161 131 242 218 363 89 429 112 331 
384 425 234 124 237 69 63 206 130 
433 455 227 229 118 243 123 116 211 
238 157 149 169 223 175 204 84 62 
155 203 165 80 178 194 183 472 154 
249 179 222 90 127 310 120 87 332 
208 117 226 86 182 110 64 430 105 
159 407 404 75 231 399 174 484 740 
184 77 60 103 195 367 98 236 360 
151 177 143 239 156 487 431 392 496 
190 139 749 401 111 114 233 91 416 
397 323 113 389 482 72 66 685 393 
214 499 209 68 344 413 202 330 328 
380 724 96 232 359 423 94 212 314 
445 119 460 419 313 101 85 122 73 
213 189 333 147 99 92 317 79 128 
210 246 145 220 241 180 352 448 142 
185 78 197 88 198 150 61 100 408 
166 428 415 490 93 311 163 240 462 
492 570 346 427 471 387 146 59 221 
115 201 385 465 483 394 391 82 126 
245 196 109 106 412 495 379 347 435 
140 436 167 97 364 376 366 315 464 
491 188 341 451 437 422 463 418 402 
390 447 349 170 162 225 176 439 224 
153 334 76 388 168 121 81 148 459 
125 603 329 640 565 219 370 320 95 
134 192 207 200 679 709 457 369 675 
132 477 383 596 688 698 449 486 468 
382 129 655 642 632 678 732 365 673 
900 666 629 452 450 454 338 362 730 
680 563 335 398 727 912 438 173 172 
135 355 250 358 625 475 626 707 498 
152 70 466 470 396 456 561 343 476 
340 350 692 473 215 405 181 342 622 
598 494 74 480 137 244 368 373 461 
646 411 377 714 337 420 348 230 371 
386 674 409 406 414 481 474 594 395 
336 444 741 467 319 575 318 400 722 
620 322 728 590 560 171 581 702 479 
485 750 618 432 356 668 500 615 592 
381 616 71 564 623 442 879 898 228 
426 372 638 458 922 326 353 735 325 
571 567 613 577 663 945 652 441 573 
572 876 974 601 695 469 927 981 992 
967 862 703 417 440 747 645 915 701 
566 847 890 936 744 579 670 569 593 
738 930 589 979 316 656 903 611 591 
726 664 607 453 493 619 718 653 410 
658 609 446 870 606 361 354 217 108 
403 630 489 682 654 745 650 715 562 
421 497 488 617 599 610 624 700 424 
710 723 568 634 748 321 955 614 327 
312 578 828 660 733 739 585 588 743 
996 933 375 672 691 697 816 586 600 
587 621 595 665 597 576 643 651 644 
604 559 818 868 712 716 602 628 639 
662 720 988 734 608 999 708 925 746 
989 696 631 686 681 848 690 635 811 
641 729 693 699 860 853 906 919 612 
574 932 909 704 877 929 958 771 959 
896 633 649 717 961 886 921 984 971 
835 647 684 711 659 731 817 869 840 
837 942 964 882 814 627 843 705 582 
935 871 895 856 855 669 637 924 812 
917 953 657 859 683 584 374 671 324 
345 736 914 580 842 954 823 867 719 
742 908 815 824 897 902 583 976 957 
977 713 938 949 478 881 963 836 721 
948 968 826 905 844 694 676 636 144 
667 834 737 970 857 918 838 725 845 
993 852 889 893 880 944 822 947 987 
865 965 875 687 885 854 829 819 661 
940 952 980 986 827 830 858 978 874 
878 962 821 913 133 861 946 850 939 
928 351 907 841 997 825 916 941 833 
901 926 891 931 911 937 985 990 975 
849 998 910 813 863 943 888 873 883 
677 866 951 872 969 983 920 706 605 
950 851 846 934 894 1000 960 884 982 
995 956 966 904 973 923 994 831 899 
972 887 820 832 187 991 892 839 443 
864 
type 1 1000 int
1 1 1 1 1 1 1 1 1 
1 1 1 1 1 1 1 1 1 
1 1 1 1 1 1 1 1 1 
1 1 1 1 1 1 1 1 1 
1 1 1 1 1 1 1 1 1 
1 1 1 1 1 1 1 1 1 
1 1 1 1 1 1 1 1 1 
1 1 1 1 1 1 1 1 1 
1 1 1 1 1 1 1 1 1 
1 1 1 1 1 1 1 1 1 
1 1 1 1 1 1 1 1 1 
1 1 1 1 1 1 1 1 1 
1 1 1 1 1 1 1 1 1 
1 1 1 1 1 1 1 1 1 
1 1 1 1 1 1 1 1 1 
1 1 1 1 1 1 1 1 1 
1 1 1 1 1 1 1 1 1 
1 1 1 1 1 1 1 1 1 
1 1 1 1 1 1 1 1 1 
1 1 1 1 1 1 1 1 1 
1 1 1 1 1 1 1 1 1 
1 1 1 1 1 1 1 1 1 
1 1 1 1 1 1 1 1 1 
1 1 1 1 1 1 1 1 1 
1 1 1 1 1 1 1 1 1 
1 1 1 1 1 1 1 1 1 
1 1 1 1 1 1 1 1 1 
1 1 1 1 1 1 1 1 1 
1 1 1 1 1 1 1 1 1 
1 1 1 1 1 1 1 1 1 
1 1 1 1 1 1 1 1 1 
1 1 1 1 1 1 1 1 1 
1 1 1 1 1 1 1 1 1 
1 1 1 1 1 1 1 1 1 
1 1 1 1 1 1 1 1 1 
1 1 1 1 1 1 1 1 1 
1 1 1 1 1 1 1 1 1 
1 1 1 1 1 1 1 1 1 
1 1 1 1 1 1 1 1 1 
1 1 1 1 1 1 1 1 1 
1 1 1 1 1 1 1 1 1 
1 1 1 1 1 1 1 1 1 
1 1 1 1 1 1 1 1 1 
1 1 1 1 1 1 1 1 1 
1 1 1 1 1 1 1 1 1 
1 1 1 1 1 1 1 1 1 
1 1 1 1 1 1 1 1 1 
1 1 1 1 1 1 1 1 1 
1 1 1 1 1 1 1 1 1 
1 1 1 1 1 1 1 1 1 
1 1 1 1 1 1 1 1 1 
1 1 1 1 1 1 1 1 1 
1 1 1 1 1 1 1 1 1 
1 1 1 1 1 1 1 1 1 
1 1 1 1 1 1 1 1 1 
1 1 1 1 1 1 1 1 1 
1 1 1 1 1 1 1 1 1 
1 1 1 1 1 1 1 1 1 
1 1 1 1 1 1 1 1 1 
1 1 1 1 1 1 1 1 1 
1 1 1 1 1 1 1 1 1 
1 1 1 1 1 1 1 1 1 
1 1 1 1 1 1 1 1 1 
1 1 1 1 1 1 1 1 1 
1 1 1 1 1 1 1 1 1 
1 1 1 1 1 1 1 1 1 
1 1 1 1 1 1 1 1 1 
1 1 1 1 1 1 1 1 1 
1 1 1 1 1 1 1 1 1 
1 1 1 1 1 1 1 1 1 
1 1 1 1 1 1 1 1 1 
1 1 1 1 1 1 1 1 1 
1 1 1 1 1 1 1 1 1 
1 1 1 1 1 1 1 1 1 
1 1 1 1 1 1 1 1 1 
1 1 1 1 1 1 1 1 1 
1 1 1 1 1 1 1 1 1 
1 1 1 1 1 1 1 1 1 
1 1 1 1 1 1 1 1 1 
1 1 1 1 1 1 1 1 1 
1 1 1 1 1 1 1 1 1 
1 1 1 1 1 1 1 1 1 
1 1 1 1 1 1 1 1 1 
1 1 1 1 1 1 1 1 1 
1 1 1 1 1 1 1 1 1 
1 1 1 1 1 1 1 1 1 
1 1 1 1 1 1 1 1 1 
1 1 1 1 1 1 1 1 1 
1 1 1 1 1 1 1 1 1 
1 1 1 1 1 1 1 1 1 
1 1 1 1 1 1 1 1 1 
1 1 1 1 1 1 1 1 1 
1 1 1 1 1 1 1 1 1 
1 1 1 1 1 1 1 1 1 
1 1 1 1 1 1 1 1 1 
1 1 1 1 1 1 1 1 1 
1 1 1 1 1 1 1 1 1 
1 1 1 1 1 1 1 1 1 
1 1 1 1 1 1 1 1 1 
1 1 1 1 1 1 1 1 1 
1 1 1 1 1 1 1 1 1 
1 1 1 1 1 1 1 1 1 
1 1 1 1 1 1 1 1 1 
1 1 1 1 1 1 1 1 1 
1 1 1 1 1 1 1 1 1 
1 1 1 1 1 1 1 1 1 
1 1 1 1 1 1 1 1 1 
1 1 1 1 1 1 1 1 1 
1 1 1 1 1 1 1 1 1 
1 1 1 1 1 1 1 1 1 
1 1 1 1 1 1 1 1 1 
1 
i 3 1000 int
0 0 0 0 0 0 0 0 0 
0 0 0 0 0 0 0 0 0 
0 0 0 0 0 0 0 0 0 
0 0 0 0 0 0 0 0 0 
0 0 0 0 0 0 0 0 0 
0 0 0 0 0 0 0 0 0 
0 0 0 0 0 0 0 0 0 
0 0 0 0 0 0 0 0 0 
0 0 0 0 0 0 0 0 0 
0 0 0 0 0 0 0 0 0 
0 0 0 0 0 0 0 0 0 
0 0 0 0 0 0 0 0 0 
0 0 0 0 0 0 0 0 0 
0 0 0 0 0 0 0 0 0 
0 0 0 0 0 0 0 0 0 
0 0 0 0 0 0 0 0 0 
0 0 0 0 0 0 0 0 0 
0 0 0 0 0 0 0 0 0 
0 0 0 0 0 0 0 0 0 
0 0 0 0 0 0 0 0 0 
0 0 0 0 0 0 0 0 0 
0 0 0 0 0 0 0 0 0 
0 0 0 0 0 0 0 0 0 
0 0 0 0 0 0 0 0 0 
0 0 0 0 0 0 0 0 0 
0 0 0 0 0 0 0 0 0 
0 0 0 0 0 0 0 0 0 
0 0 0 0 0 0 0 0 0 
0 0 0 0 0 0 0 0 0 
0 0 0 0 0 0 0 0 0 
0 0 0 0 0 0 0 0 0 
0 0 0 0 0 0 0 0 0 
0 0 0 0 0 0 0 0 0 
0 0 0 0 0 0 0 0 0 
0 0 0 0 0 0 0 0 0 
0 0 0 0 0 0 0 0 0 
0 0 0 0 0 0 0 0 0 
0 0 0 0 0 0 0 0 0 
0 0 0 0 0 0 0 0 0 
0 0 0 0 0 0 0 0 0 
0 0 0 0 0 0 0 0 0 
0 0 0 0 0 0 0 0 0 
0 0 0 0 0 0 0 0 0 
0 0 0 0 0 0 0 0 0 
0 0 0 0 0 0 0 0 0 
0 0 0 0 0 0 0 0 0 
0 0 0 0 0 0 0 0 0 
0 0 0 0 0 0 0 0 0 
0 0 0 0 0 0 0 0 0 
0 0 0 0 0 0 0 0 0 
0 0 0 0 0 0 0 0 0 
0 0 0 0 0 0 0 0 0 
0 0 0 0 0 0 0 0 0 
0 0 0 0 0 0 0 0 0 
0 0 0 0 0 0 0 0 0 
0 0 0 0 0 0 0 0 0 
0 0 0 0 0 0 0 0 0 
0 0 0 0 0 0 0 0 0 
0 0 0 0 0 0 0 0 0 
0 0 0 0 0 0 0 0 0 
0 0 0 0 0 0 0 0 0 
0 0 0 0 0 0 0 0 0 
0 0 0 0 0 0 0 0 0 
0 0 0 0 0 0 0 0 0 
0 0 0 0 0 0 0 0 0 
0 0 0 0 0 0 0 0 0 
0 0 0 0 0 0 0 0 0 
0 0 0 0 0 0 0 0 0 
0 0 0 0 0 0 0 0 0 
0 0 0 0 0 0 0 0 0 
0 0 0 0 0 0 0 0 0 
0 0 0 0 0 0 0 0 0 
0 0 0 0 0 0 0 0 0 
0 0 0 0 0 0 0 0 0 
0 0 0 0 0 0 0 0 0 
0 0 0 0 0 0 0 0 0 
0 0 0 0 0 0 0 0 0 
0 0 0 0 0 0 0 0 0 
0 0 0 0 0 0 0 0 0 
0 0 0 0 0 0 0 0 0 
0 0 0 0 0 0 0 0 0 
0 0 0 0 0 0 0 0 0 
0 0 0 0 0 0 0 0 0 
0 0 0 0 0 0 0 0 0 
0 0 0 0 0 0 0 0 0 
0 0 0 0 0 0 0 0 0 
0 0 0 0 0 0 0 0 0 
0 0 0 0 0 0 0 0 0 
0 0 0 0 0 0 0 0 0 
0 0 0 0 0 0 0 0 0 
0 0 0 0 0 0 0 0 0 
0 0 0 0 0 0 0 0 0 
0 0 0 0 0 0 0 0 0 
0 0 0 0 0 0 0 0 0 
0 0 0 0 0 0 0 0 0 
0 0 0 0 0 0 0 0 0 
0 0 0 0 0 0 0 0 0 
0 0 0 0 0 0 0 0 0 
0 0 0 0 0 0 0 0 0 
0 0 0 0 0 0 0 0 0 
0 0 0 0 0 0 0 0 0 
0 0 0 0 0 0 0 0 0 
0 0 0 0 0 0 0 0 0 
0 0 0 0 0 0 0 0 0 
0 0 0 0 0 0 0 0 0 
0 0 0 0 0 0 0 0 0 
0 0 0 0 0 0 0 0 0 
0 0 0 0 0 0 0 0 0 
0 0 0 0 0 0 0 0 0 
0 0 0 0 0 0 0 0 0 
0 0 0 0 0 0 0 0 0 
0 0 0 0 0 0 0 0 0 
0 0 0 0 0 0 0 0 0 
0 0 0 0 0 0 0 0 0 
0 0 0 0 0 0 0 0 0 
0 0 0 0 0 0 0 0 0 
0 0 0 0 0 0 0 0 0 
0 0 0 0 0 0 0 0 0 
0 0 0 0 0 0 0 0 0 
0 0 0 0 0 0 0 0 0 
0 0 0 0 0 0 0 0 0 
0 0 0 0 0 0 0 0 0 
0 0 0 0 0 0 0 0 0 
0 0 0 0 0 0 0 0 0 
0 0 0 0 0 0 0 0 0 
0 0 0 0 0 0 0 0 0 
0 0 0 0 0 0 0 0 0 
0 0 0 0 0 0 0 0 0 
0 0 0 0 0 0 0 0 0 
0 0 0 0 0 0 0 0 0 
0 0 0 0 0 0 0 0 0 
0 0 0 0 0 0 0 0 0 
0 0 0 0 0 0 0 0 0 
0 0 0 0 0 0 0 0 0 
0 0 0 0 0 0 0 0 0 
0 0 0 0 0 0 0 0 0 
0 0 0 0 0 0 0 0 0 
0 0 0 0 0 0 0 0 0 
0 0 0 0 0 0 0 0 0 
0 0 0 0 0 0 0 0 0 
0 0 0 0 0 0 0 0 0 
0 0 0 0 0 0 0 0 0 
0 0 0 0 0 0 0 0 0 
0 0 0 0 0 0 0 0 0 
0 0 0 0 0 0 0 0 0 
0 0 0 0 0 0 0 0 0 
0 0 0 0 0 0 0 0 0 
0 0 0 0 0 0 0 0 0 
0 0 0 0 0 0 0 0 0 
0 0 0 0 0 0 0 0 0 
0 0 0 0 0 0 0 0 0 
0 0 0 0 0 0 0 0 0 
0 0 0 0 0 0 0 0 0 
0 0 0 0 0 0 0 0 0 
0 0 0 0 0 0 0 0 0 
0 0 0 0 0 0 0 0 0 
0 0 0 0 0 0 0 0 0 
0 0 0 0 0 0 0 0 0 
0 0 0 0 0 0 0 0 0 
0 0 0 0 0 0 0 0 0 
0 0 0 0 0 0 0 0 0 
0 0 0 0 0 0 0 0 0 
0 0 0 0 0 0 0 0 0 
0 0 0 0 0 0 0 0 0 
0 0 0 0 0 0 0 0 0 
0 0 0 0 0 0 0 0 0 
0 0 0 0 0 0 0 0 0 
0 0 0 0 0 0 0 0 0 
0 0 0 0 0 0 0 0 0 
0 0 0 0 0 0 0 0 0 
0 0 0 0 0 0 0 0 0 
0 0 0 0 0 0 0 0 0 
0 0 0 0 0 0 0 0 0 
0 0 0 0 0 0 0 0 0 
0 0 0 0 0 0 0 0 0 
0 0 0 0 0 0 0 0 0 
0 0 0 0 0 0 0 0 0 
0 0 0 0 0 0 0 0 0 
0 0 0 0 0 0 0 0 0 
0 0 0 0 0 0 0 0 0 
0 0 0 0 0 0 0 0 0 
0 0 0 0 0 0 0 0 0 
0 0 0 0 0 0 0 0 0 
0 0 0 0 0 0 0 0 0 
0 0 0 0 0 0 0 0 0 
0 0 0 0 0 0 0 0 0 
0 0 0 0 0 0 0 0 0 
0 0 0 0 0 0 0 0 0 
0 0 0 0 0 0 0 0 0 
0 0 0 0 0 0 0 0 0 
0 0 0 0 0 0 0 0 0 
0 0 0 0 0 0 0 0 0 
0 0 0 0 0 0 0 0 0 
0 0 0 0 0 0 0 0 0 
0 0 0 0 0 0 0 0 0 
0 0 0 0 0 0 0 0 0 
0 0 0 0 0 0 0 0 0 
0 0 0 0 0 0 0 0 0 
0 0 0 0 0 0 0 0 0 
0 0 0 0 0 0 0 0 0 
0 0 0 0 0 0 0 0 0 
0 0 0 0 0 0 0 0 0 
0 0 0 0 0 0 0 0 0 
0 0 0 0 0 0 0 0 0 
0 0 0 0 0 0 0 0 0 
0 0 0 0 0 0 0 0 0 
0 0 0 0 0 0 0 0 0 
0 0 0 0 0 0 0 0 0 
0 0 0 0 0 0 0 0 0 
0 0 0 0 0 0 0 0 0 
0 0 0 0 0 0 0 0 0 
0 0 0 0 0 0 0 0 0 
0 0 0 0 0 0 0 0 0 
0 0 0 0 0 0 0 0 0 
0 0 0 0 0 0 0 0 0 
0 0 0 0 0 0 0 0 0 
0 0 0 0 0 0 0 0 0 
0 0 0 0 0 0 0 0 0 
0 0 0 0 0 0 0 0 0 
0 0 0 0 0 0 0 0 0 
0 0 0 0 0 0 0 0 0 
0 0 0 0 0 0 0 0 0 
0 0 0 0 0 0 0 0 0 
0 0 0 0 0 0 0 0 0 
0 0 0 0 0 0 0 0 0 
0 0 0 0 0 0 0 0 0 
0 0 0 0 0 0 0 0 0 
0 0 0 0 0 0 0 0 0 
0 0 0 0 0 0 0 0 0 
0 0 0 0 0 0 0 0 0 
0 0 0 0 0 0 0 0 0 
0 0 0 0 0 0 0 0 0 
0 0 0 0 0 0 0 0 0 
0 0 0 0 0 0 0 0 0 
0 0 0 0 0 0 0 0 0 
0 0 0 0 0 0 0 0 0 
0 0 0 0 0 0 0 0 0 
0 0 0 0 0 0 0 0 0 
0 0 0 0 0 0 0 0 0 
0 0 0 0 0 0 0 0 0 
0 0 0 0 0 0 0 0 0 
0 0 0 0 0 0 0 0 0 
0 0 0 0 0 0 0 0 0 
0 0 0 0 0 0 0 0 0 
0 0 0 0 0 0 0 0 0 
0 0 0 0 0 0 0 0 0 
0 0 0 0 0 0 0 0 0 
0 0 0 0 0 0 0 0 0 
0 0 0 0 0 0 0 0 0 
0 0 0 0 0 0 0 0 0 
0 0 0 0 0 0 0 0 0 
0 0 0 0 0 0 0 0 0 
0 0 0 0 0 0 0 0 0 
0 0 0 0 0 0 0 0 0 
0 0 0 0 0 0 0 0 0 
0 0 0 0 0 0 0 0 0 
0 0 0 0 0 0 0 0 0 
0 0 0 0 0 0 0 0 0 
0 0 0 0 0 0 0 0 0 
0 0 0 0 0 0 0 0 0 
0 0 0 0 0 0 0 0 0 
0 0 0 0 0 0 0 0 0 
0 0 0 0 0 0 0 0 0 
0 0 0 0 0 0 0 0 0 
0 0 0 0 0 0 0 0 0 
0 0 0 0 0 0 0 0 0 
0 0 0 0 0 0 0 0 0 
0 0 0 0 0 0 0 0 0 
0 0 0 0 0 0 0 0 0 
0 0 0 0 0 0 0 0 0 
0 0 0 0 0 0 0 0 0 
0 0 0 0 0 0 0 0 0 
0 0 0 0 0 0 0 0 0 
0 0 0 0 0 0 0 0 0 
0 0 0 0 0 0 0 0 0 
0 0 0 0 0 0 0 0 0 
0 0 0 0 0 0 0 0 0 
0 0 0 0 0 0 0 0 0 
0 0 0 0 0 0 0 0 0 
0 0 0 0 0 0 0 0 0 
0 0 0 0 0 0 0 0 0 
0 0 0 0 0 0 0 0 0 
0 0 0 0 0 0 0 0 0 
0 0 0 0 0 0 0 0 0 
0 0 0 0 0 0 0 0 0 
0 0 0 0 0 0 0 0 0 
0 0 0 0 0 0 0 0 0 
0 0 0 0 0 0 0 0 0 
0 0 0 0 0 0 0 0 0 
0 0 0 0 0 0 0 0 0 
0 0 0 0 0 0 0 0 0 
0 0 0 0 0 0 0 0 0 
0 0 0 0 0 0 0 0 0 
0 0 0 0 0 0 0 0 0 
0 0 0 0 0 0 0 0 0 
0 0 0 0 0 0 0 0 0 
0 0 0 0 0 0 0 0 0 
0 0 0 0 0 0 0 0 0 
0 0 0 0 0 0 0 0 0 
0 0 0 0 0 0 0 0 0 
0 0 0 0 0 0 0 0 0 
0 0 0 0 0 0 0 0 0 
0 0 0 0 0 0 0 0 0 
0 0 0 0 0 0 0 0 0 
0 0 0 0 0 0 0 0 0 
0 0 0 0 0 0 0 0 0 
0 0 0 0 0 0 0 0 0 
0 0 0 0 0 0 0 0 0 
0 0 0 0 0 0 0 0 0 
0 0 0 0 0 0 0 0 0 
0 0 0 0 0 0 0 0 0 
0 0 0 0 0 0 0 0 0 
0 0 0 0 0 0 0 0 0 
0 0 0 0 0 0 0 0 0 
0 0 0 0 0 0 0 0 0 
0 0 0 0 0 0 0 0 0 
0 0 0 0 0 0 0 0 0 
0 0 0 0 0 0 0 0 0 
0 0 0 0 0 0 0 0 0 
0 0 0 0 0 0 0 0 0 
0 0 0 0 0 0 0 0 0 
0 0 0 0 0 0 0 0 0 
0 0 0 0 0 0 0 0 0 
0 0 0 0 0 0 0 0 0 
0 0 0 0 0 0 0 0 0 
0 0 0 0 0 0 0 0 0 
0 0 0 0 0 0 0 0 0 
0 0 0 0 0 0 0 0 0 
0 0 0 0 0 0 0 0 0 
0 0 0 0 0 0 0 0 0 
0 0 0 0 0 0 0 0 0 
0 0 0 0 0 0 0 0 0 
0 0 0 0 0 0 0 0 0 
0 0 0 
v 3 1000 double
0.13253731008 0.20548932133 0.022203460399 -0.11158464339 0.43994425352 -0.014869784127 0.0022596880771 -0.00054600771535 -0.017167723445 
-0.00010888308159 -0.0029543208445 -0.017096197484 0.0021118901995 0.0008633233192 -0.015247877378 0.0044921922661 -0.00094537175768 -0.01277814463 
0.0008109653402 0.012961338515 -0.012520289707 0.0010835304011 -0.0021019521596 -0.00032607540889 -0.050800134942 -0.021275497742 0.0024587200702 
-0.0053425158195 0.0010757858676 -0.011185744662 0.00011064194265 0.002504442064 0.0010615463293 -0.0046782217609 0.0025931371049 0.014062651731 
-0.0058970118713 0.0026050771078 -0.0012868159798 -0.0052929436082 0.0032523538986 -0.0055035792606 0.0043060912309 0.001599421773 -0.0046855002198 
0.0041537768181 -0.0050290092252 0.0037071140863 0.1799662271 0.042430440274 0.041459891688 0.16280633207 0.016929074361 -0.0020336356093 
-0.0043043587209 0.00080206613523 -1.237156079e-05 -0.0085691694125 -0.0059773440093 -0.0032170894968 -0.0082352647435 -0.00089407958464 -0.0069432536707 
-0.0013008572344 0.00042322884681 0.0012363705849 -0.0032215833399 0.0010895421347 0.0067472872085 -0.0050751848891 0.0011991870922 -0.007694741622 
-0.0040936014476 0.0020447179212 -0.0079270253568 -0.0028052260227 0.0012477314403 -0.0051200185138 0.0032478545581 -0.0018217413459 -0.0013049465341 
0.0064210438446 -0.0090812047365 0.0061400206984 0.0073280748916 -0.0097271170969 0.0073649972211 0.012967776194 -0.0071676383479 0.025865461611 
0.19436401338 0.047912767416 0.035054673176 -0.0088720710506 -0.0022655059813 0.0047008768671 -0.010633110554 -0.0032018144249 0.0011394433261 
-0.0074272176235 0.0016959265267 -0.012461141815 -0.0044809562934 0.00080413097365 -0.0040290538549 -0.0012282979349 0.00137705443 -0.0036279062248 
0.00036533676944 0.0001456509741 -0.0010753930274 0.0037004141117 -0.0088332176706 -0.00078760340668 0.010442896103 -0.0096628661552 0.0023553277818 
0.015859277122 -0.0095499558239 0.023398263368 0.00043399758208 -0.0010175988568 0.0022346430836 -0.009196130033 0.00057717428749 -0.0034464882392 
-0.0029728086337 0.0011082990875 -0.0092155590523 0.00074236703716 0.00048876280303 -0.0018249630391 0.0026476657126 -0.0011748994879 0.0013704826243 
0.0046619769967 -0.0033879030974 0.0014580145403 0.0092004578515 -0.0096833386051 -0.0013748235974 0.014837083803 -0.0080243088855 0.0049991399573 
0.0029890561696 0.0018557299403 0.0082910791797 0.0032592016185 -0.00033749818584 0.0037023363939 -0.008669399693 0.00094515847275 0.0029636297261 
-0.0072314130233 -0.00025169766854 -0.0022864386568 0.010753783035 -0.029682346937 0.00013480316141 0.0030969283425 -0.00063801368561 -0.00065874802991 
0.0025625232591 0.0010949560355 0.0078223428038 0.03845113625 -0.013966832519 0.024633643027 -0.1951159638 0.13452415013 0.034570097515 
0.0024993512382 -0.00077007868067 -0.017456730745 0.0068113646241 -0.0010236921311 -0.014987920006 -0.00017872071247 -0.0048054165526 -0.014098124287 
0.0019900576317 -0.0022750513035 -0.016470535284 -0.00046821902568 -0.0027992774983 -0.0095340960961 -0.0020890233963 0.0072434444215 -0.018599731226 
-0.0049451446743 -0.0051333607164 -0.0092054393814 -0.004815452182 -0.0048746181127 -0.014001048553 -0.002620453569 -0.0065162041465 -0.015166184001 
-0.0040240539349 0.003424645415 -0.0081612442939 -0.0019274939158 -0.00016041725542 -0.0023323218233 0.002354848996 0.00080144660385 -0.0045300098198 
0.0019317844461 -0.0009580432395 -0.0060529639311 -0.0019270289905 -0.0026073264356 -4.6282160667e-05 0.17956107176 0.055596184001 0.024737079284 
0.18866128149 0.06379215984 0.030254730644 -0.0053722579109 -0.0028918555935 0.0025986690593 -0.0064754656031 -0.0040867996886 0.0038205673317 
-0.0036644336116 -0.0044442577733 -0.0072251810449 -0.010115607692 -0.0056203118991 -0.01092137406 -0.0047958173254 -0.0027087019614 -0.0038906220113 
-0.00069904974654 -0.0023146249925 -0.0012745908747 -0.00066838347336 -0.0032349592146 0.00088039152506 0.0021582191785 -0.0042011103086 0.0050180253542 
0.0041343238501 -0.0051291349954 0.0087982210108 0.0086420782331 -0.013088186142 0.0049173123457 -0.00064378677726 -0.0010821322489 0.0059157115092 
-0.0011015208463 -0.0020457949945 -0.00203128863 -0.0041958601572 0.00040743625875 0.0033296611173 -0.0043404213211 -0.0036228629854 -0.0011128184524 
0.0019345805698 0.00069405776653 -0.0042549551085 -0.0053118049563 -0.0018386270256 -0.0050253165822 0.0017658543409 -0.0043359769974 -0.0010246611755 
0.0022149129005 -0.0058836903446 -0.0012810432352 0.0024001180287 -0.004957220142 0.0014147153722 0.0029115216481 -0.0032570811881 0.0043954274792 
0.0055755536777 -0.0093830934292 0.01285643348 -0.0066735787699 -0.015510013741 0.030909051723 0.00020092439756 -0.0006271483855 0.0037550383918 
0.00026951164637 0.0013534860029 0.0034877593774 0.00016542001071 0.0011727544662 0.0027132689341 -0.0030793851954 -0.0025096317877 0.0017686154921 
-0.00014134097227 -0.0027596098967 0.0049261713014 -0.0036436263938 -0.0022896724619 0.00065821909317 -0.0043232472198 0.0014906080839 -0.0092767532427 
-0.0040420316022 -0.00078056689141 -0.0041015733787 -0.0025748371187 -0.0014757780892 -0.0039372583409 -0.00068148063014 -0.0011912937077 -0.0011466342122 
0.00091247691972 -0.0044834960144 -0.00034583332168 0.0053773783083 -0.0082640760726 -0.0014938086783 0.0023560470709 -0.0064545198738 0.0013176566567 
0.001464260965 -0.0055668999317 0.012286327315 0.0098170518912 -0.0063647411146 0.013860196344 0.0029241889384 0.00025331452261 0.0032772279685 
0.0043786478203 -0.0023224077517 0.0014730297291 -0.0030696110226 -0.0029378085671 -0.0020545596962 -0.0054085546435 -0.010570497508 -0.0079784072903 
-0.0019551512003 -0.0014511198455 -0.0030558730352 0.0017356553063 -0.0027215354784 0.0082260972899 0.0016208033677 -0.0031494625364 0.0052349415172 
0.00034585875993 -0.00092865854325 0.018280727164 0.0032082536863 -0.0027138045509 -0.016363534755 -0.00020186781737 -0.0055020738745 -0.014490293208 
-0.0010224559301 -0.0064923437236 -0.014630624835 -0.00027228788966 -0.0043618564813 -0.010991913252 -0.00113052106 0.0040210565241 0.00094704738661 
-0.0012124494726 -0.0044850824546 -0.0030691780061 -0.0014662030265 -0.0069041799168 -0.011366857595 -0.0050977631523 -0.0068819379444 -0.0046808150699 
0.0019192182721 -0.0073724468368 -0.0087506585875 0.0060137049181 -0.010623174406 -0.0051955332958 -0.0010519580567 -0.0021989802679 -0.002061138219 
-0.010468943124 -0.00042758002061 0.010301307279 0.00097392383824 0.0015722894514 0.0049001430493 0.00015404634575 -0.0026365111113 -0.00028409735814 
0.0029727807908 0.0010752583255 -0.00069299282195 0.0013162292157 -0.0066173719687 -0.00724439211 0.00055232645222 -0.0082829697212 -0.013393221788 
-0.0011747585012 0.00019094055069 -0.0051240110479 -0.0054617921958 -0.0074865309292 -0.0042804829445 -0.0036439773282 -0.0051546451563 -0.0048263197014 
-0.0066126084031 -0.010658197839 -0.0102479173 -0.0069264242317 0.0036990095255 -0.0006005695655 0.0022045256496 -0.00090708816493 0.0021609979785 
0.0014885700933 0.00060239713785 0.0033438537854 0.0039615548807 -0.0048054041467 -0.0063503983689 0.0013936109241 -0.0052954066546 -0.0022902856555 
0.0018511768543 -0.0036515695963 -0.0044615618907 -0.0034925462442 -0.0036801859677 -0.0055185436958 0.0013276855192 -0.004195830952 -0.0020839041767 
5.1965689819e-06 -0.0030136965529 0.003250990875 0.0026639993827 -0.0013340647843 0.0087019286173 0.00097486168124 0.0034992251309 0.0050898871682 