# vtk DataFile Version 4.1
Generated by LIGGGHTS
ASCII
DATASET POLYDATA
POINTS 1000 float
-0.00170331 -0.0179261 0.00185407 0.00090882 -0.0168165 0.00215294 0.00587397 -0.0160446 0.001516 
0.00209564 -0.0132519 0.00151532 0.00494058 -0.0133442 0.00170479 0.00773953 -0.0138954 0.00153799 
0.0165009 -0.0126402 0.00187007 0.021924 -0.0129058 0.00148455 -0.00538146 -0.0121647 0.00150525 
0.00240451 -0.010436 0.00165911 0.00526632 -0.0104869 0.001506 0.00813191 -0.0104256 0.00152596 
0.01098 -0.0103606 0.00148345 0.013585 -0.0115226 0.00150905 0.0192399 -0.0119265 0.00156703 
0.0228803 -0.0103811 0.00242202 -0.0388805 -0.00765892 0.00148537 -0.00639601 -0.00759974 0.00147519 
-0.00454807 -0.00957079 0.00235831 -0.000394688 -0.00989425 0.00153052 0.0038295 -0.007992 0.00160477 
0.00667338 -0.00799373 0.00163549 0.00951602 -0.00790436 0.0014965 0.0123253 -0.00791148 0.00206454 
0.0149216 -0.00901424 0.00150697 0.0181059 -0.00749997 0.001486 0.0202667 -0.00930575 0.00195989 
0.0253484 -0.00906557 0.00186469 0.028147 -0.00946398 0.00150779 0.0321965 -0.00789921 0.00158927 
-0.0379859 -0.00493826 0.00151127 -0.0361353 -0.00705572 0.00196142 -0.0036003 -0.0070047 0.0015184 
-0.000798817 -0.0071311 0.00207706 0.00800016 -0.00546996 0.00151542 0.0129165 -0.00517816 0.00148662 
0.0155464 -0.00624547 0.00151114 0.0236807 -0.00675678 0.00184095 0.0270693 -0.00681108 0.00153256 
0.0312273 -0.00521766 0.00170745 -0.000913997 -0.00269732 0.00147619 0.00627473 -0.00318921 0.00150587 
0.0111226 -0.00299187 0.0018116 0.0174908 -0.00417189 0.00149573 0.0201816 -0.0037707 0.00229556 
0.0229217 -0.00402237 0.00159009 0.0257033 -0.00435612 0.00207631 0.0285123 -0.00434389 0.00155897 
-0.00494672 -0.000431927 0.00206797 -0.00212475 -0.000285155 0.00240654 0.00401713 -0.00143249 0.00152496 
0.0066591 -0.000358925 0.00149981 0.0139743 -0.000150439 0.00198672 0.0175037 -0.00132693 0.00146993 
0.0225823 -0.0011875 0.00161161 0.0347575 -0.00196471 0.00151225 -0.0014078 -0.0152433 0.00274585 
0.00334274 -0.0155026 0.00270488 0.00556449 -0.0173257 0.00405529 -0.0198121 -0.0144001 0.00714145 
0.0021461 -0.013517 0.00435986 0.00629283 -0.0145677 0.00391327 0.00906678 -0.0128821 0.00384786 
0.0145211 -0.013375 0.00378415 0.000724932 -0.0110954 0.00385871 0.00395704 -0.011368 0.00386704 
0.00700237 -0.0110456 0.00454466 0.0118516 -0.0123941 0.00358864 0.0100612 -0.0102259 0.0041732 
0.0173635 -0.0100154 0.00260168 0.0181494 -0.0122609 0.00417474 0.02124 -0.0120059 0.00409253 
-0.00548503 -0.00757222 0.00417764 -0.00268991 -0.00814089 0.00396422 0.00255614 -0.00888433 0.0040443 
0.0135077 -0.00910167 0.00437088 0.0159995 -0.00781759 0.00386118 0.0188257 -0.00811009 0.00416381 
0.0214266 -0.00919831 0.00456632 0.0242663 -0.00897774 0.00450247 0.0270909 -0.00904162 0.00412672 
0.0306612 -0.0100091 0.00274767 -0.0405026 -0.005628 0.00265318 -0.0380931 -0.00644397 0.00394672 
-0.00746519 -0.00570206 0.00328978 -0.000377969 -0.00677357 0.00489274 -0.00243162 -0.00532641 0.00352914 
0.0027883 -0.00609208 0.00344844 0.00590157 -0.0068932 0.00415628 0.0135835 -0.00627442 0.0040421 
0.0191846 -0.00527915 0.00450321 0.0210904 -0.00681131 0.00302503 0.0243278 -0.00612194 0.00454972 
0.0271787 -0.00619277 0.004309 0.029624 -0.00735043 0.00270362 0.0319794 -0.00656534 0.00410601 
-0.00592514 -0.00341742 0.00405157 -0.00347355 -0.002788 0.00272839 -0.0011022 -0.00254745 0.00430181 
0.000326684 -0.00470022 0.00307514 0.00172194 -0.0027511 0.00461296 0.00416927 -0.00357842 0.00340064 
0.00860939 -0.00318398 0.00312661 0.013189 -0.00344344 0.00372012 0.0158144 -0.00452328 0.00377953 
0.0180255 -0.00273021 0.0038899 0.0212019 -0.00330615 0.00492006 0.0239619 -0.00332489 0.00414354 
0.026734 -0.00266665 0.00412252 0.0296915 -0.00485425 0.00409675 0.030536 -0.00258747 0.00255285 
-0.00751218 -0.00159098 0.00254211 0.000641788 -0.000763293 0.00288821 0.00628742 -0.00174205 0.00396125 
0.0132224 -0.000218441 0.00474838 0.016552 -0.000261268 0.00391106 0.019999 -0.000974241 0.00280482 
0.0286544 -0.000665255 0.00348193 0.0324247 -0.00119035 0.00418893 0.00403336 -0.0153639 0.00546814 
0.00525892 -0.0128264 0.00593147 0.00807308 -0.0142447 0.00614352 0.0108569 -0.0136258 0.00596356 
-0.00297198 -0.0103743 0.00733798 -0.000380126 -0.0122587 0.0062217 0.0023224 -0.0113445 0.00620318 
0.0105467 -0.0109508 0.00687369 0.0132891 -0.0121357 0.00604107 0.0173965 -0.0123689 0.00691675 
0.0196656 -0.0108177 0.00614083 0.0243629 -0.0104394 0.00695498 -0.00522154 -0.00762929 0.00702604 
-0.000840038 -0.00950105 0.00564282 -0.0023625 -0.00759544 0.00711668 0.00163247 -0.00863976 0.00675261 
0.0049935 -0.0092526 0.00548574 0.00891658 -0.00784599 0.00528637 0.0115311 -0.00834006 0.00628755 
0.0170538 -0.0099532 0.00543051 0.0150038 -0.00845289 0.00670692 0.0217625 -0.00934089 0.00739557 
0.0244372 -0.00758414 0.00699225 -0.00442681 -0.0053181 0.00556244 0.00160287 -0.00578986 0.00671028 
0.00421936 -0.00519772 0.00573947 0.00649278 -0.00646277 0.00690568 0.00925238 -0.00605642 0.00749504 
0.01147 -0.00551441 0.0058002 0.0216882 -0.00601818 0.00567987 0.0272098 -0.00683441 0.00709303 
-0.00841207 -0.00436466 0.00560922 -0.00605635 -0.00339894 0.00690988 -0.00366408 -0.00257525 0.00556795 
-0.00172903 -0.00459347 0.00618308 0.00319676 -0.00287548 0.00705306 0.0068416 -0.00433719 0.00504179 
0.00944474 -0.00348978 0.0058521 0.0124996 -0.00292112 0.00641747 0.0145847 -0.00486737 0.00632071 
0.01915 -0.00368541 0.00687995 0.0232262 -0.003924 0.00683809 0.0259463 -0.00445084 0.00620442 
0.0287367 -0.00441523 0.00675399 -0.0102214 -0.000459656 0.00681988 -0.00768237 -0.00161968 0.00539308 
4.48997e-05 -0.00247671 0.00691331 0.00655957 -0.000267582 0.00637807 0.0151218 -0.00221793 0.00542288 
0.0176692 -0.00131195 0.00633587 0.0225503 -0.00120437 0.00628851 0.0271332 -0.00210924 0.00729888 
0.0300621 -0.00231648 0.00534543 0.0035475 -0.0129621 0.00821339 0.00609067 -0.0140578 0.00888531 
0.0088534 -0.0147803 0.00884916 0.0110879 -0.0130021 0.00875336 0.00298691 -0.0102096 0.00873141 
0.00545982 -0.0113624 0.00960185 0.0073939 -0.0118842 0.00757706 0.011783 -0.0102728 0.00935154 
0.0166505 -0.0107912 0.00916682 0.0210651 -0.0119548 0.00834178 -0.00448214 -0.00906615 0.00937994 
6.71874e-05 -0.00902741 0.00911019 0.00609354 -0.008837 0.00844104 0.00956605 -0.00874528 0.00834921 
0.0130238 -0.00779533 0.00865098 0.0157708 -0.00789258 0.00940034 0.0192855 -0.00973514 0.00875331 
-0.00729292 -0.00580955 0.00779829 -0.00314021 -0.00655908 0.009655 -0.000620829 -0.00581565 0.00850694 
0.00387207 -0.00719008 0.0077484 0.00644564 -0.00590651 0.00968316 0.0198935 -0.00719757 0.00757304 
0.0224141 -0.00616206 0.00842941 -0.00965554 -0.00498256 0.00916719 -0.00865984 -0.00264549 0.00786365 
-0.0071203 -0.00389419 0.00991292 -0.00379827 -0.00400453 0.0085543 -0.000576452 -0.00281934 0.00967383 
0.00356879 -0.00352892 0.00981233 0.00741005 -0.00392736 0.00782197 0.0101407 -0.00358501 0.00862065 
0.0126094 -0.00499301 0.00837086 0.0124951 -0.0026287 0.00995706 0.0165521 -0.00329961 0.00804625 
0.0187357 -0.00266623 0.00977141 0.0255733 -0.00381175 0.00897652 -0.0104532 -0.00122671 0.00955852 
-0.00516925 -0.00149007 0.00882592 -0.00246242 -0.00156337 0.0079397 0.00105157 -0.000628169 0.00884625 
0.00549119 -0.00191862 0.00844839 0.0143181 -0.00151082 0.00807319 0.0168722 -0.000641684 0.00900507 
0.020122 -0.00115245 0.00779052 0.0245995 -0.00122555 0.00827667 0.0298426 -0.00220342 0.00819275 
0.00417626 -0.0135316 0.0109407 0.00819069 -0.0106186 0.0100077 0.0143224 -0.0100152 0.0106369 
0.000782129 -0.00937856 0.0118501 0.00242202 -0.00778871 0.0101341 0.00776944 -0.0080087 0.0110851 
0.0108378 -0.00797429 0.0107749 0.0131825 -0.00807905 0.0124026 0.0177963 -0.00901804 0.0110754 
0.0217395 -0.00989611 0.0101924 -0.000706573 -0.00707751 0.0110601 0.00215847 -0.00577802 0.0121428 
0.00920592 -0.00565756 0.0103311 0.0140331 -0.0060017 0.0106356 0.0166038 -0.00652897 0.0117695 
0.0190167 -0.00658363 0.0102264 0.0230912 -0.00747447 0.0108739 -0.0031151 -0.00424331 0.0113214 
-0.000350051 -0.00441407 0.0120251 0.00489424 -0.00498899 0.0118769 0.00731808 -0.00362221 0.011142 
0.0101276 -0.00320174 0.0114509 0.0173906 -0.0038007 0.0120186 0.0153245 -0.00252375 0.010518 
0.0207465 -0.00484345 0.0116891 0.0233899 -0.004643 0.0106244 0.0015744 -0.00237015 0.011495 
0.00497392 -0.00215107 0.0118871 0.00743759 -0.000781455 0.0115349 0.021541 -0.00248477 0.010295 
0.00449207 -0.0161989 0.0132377 0.0122513 -0.00172993 0.0126601 -0.00950856 0.000153964 0.00149956 
-0.00756427 0.00205802 0.0023786 -0.0035702 0.00200394 0.00149647 0.0163991 0.00130148 0.00152997 
0.0215154 0.00138152 0.0022518 0.0327942 0.000105024 0.00166765 0.0355686 0.000764028 0.00172415 
-0.010138 0.00292786 0.00148699 -0.00564193 0.00397704 0.00148563 0.0160457 0.00404612 0.00224307 
0.0249266 0.00311636 0.00149437 0.0273438 0.00426709 0.00247674 0.0336206 0.00276205 0.00232726 
-0.0291471 0.00458119 0.00192027 -0.0119656 0.00727213 0.00197493 -0.00637126 0.00675804 0.00154164 
0.0003211 0.00603452 0.0015193 0.0113302 0.00690068 0.00149432 0.01825 0.00570086 0.00150268 
0.0281066 0.00700305 0.00224539 0.0308571 0.00624884 0.00230043 0.0345041 0.00541899 0.00174865 
-0.00374973 0.00992029 0.00221553 0.00114251 0.0087638 0.0015231 0.0088855 0.00848008 0.00149334 
0.0114036 0.00974939 0.00158088 0.0264197 0.00995149 0.00157544 0.0331304 0.00792055 0.00189896 
-0.0120629 0.0101358 0.0020219 -0.00989596 0.0119285 0.00149034 -0.00716088 0.0113838 0.00216295 
-0.00106309 0.0105744 0.00146765 0.00349134 0.0102241 0.00220235 0.00619494 0.0109691 0.00155188 
0.00904234 0.0113505 0.00160341 0.0139277 0.0110251 0.00190623 0.0191806 0.0118452 0.00196698 
0.0240246 0.0114318 0.00198941 0.0292537 0.0103024 0.0014637 0.031072 0.0124305 0.00187683 
-0.0115623 0.0141299 0.00226267 -0.00885034 0.0145907 0.00149226 0.0041636 0.0129512 0.0018568 
0.0095021 0.014166 0.00184748 0.0167705 0.0132964 0.00148099 0.0211915 0.0138882 0.002023 
[...]
POINT_DATA 1000
FIELD FieldData 7
id 1 1000 int
10 41 49 266 25 280 297 3 18 
263 22 12 290 285 53 27 83 302 
36 282 268 251 277 295 37 46 48 
21 9 141 23 29 17 2 16 50 
30 15 39 247 43 104 38 33 7 
19 274 309 191 107 235 6 378 138 
164 248 24 254 1 57 252 52 262 
504 298 256 535 301 520 56 296 272 
270 58 306 258 13 45 294 264 260 
32 40 51 259 253 28 287 278 31 
273 4 281 305 34 65 304 205 54 
47 303 308 44 8 5 42 289 261 
527 292 279 291 11 35 434 67 14 
554 689 26 267 551 558 761 509 531 
555 544 543 501 533 549 524 525 508 
548 552 526 257 518 521 503 293 534 
283 528 532 286 284 767 507 506 276 
255 510 265 275 300 269 556 307 530 
788 804 529 536 158 299 288 547 807 
511 515 810 773 766 769 787 789 774 
782 751 768 765 776 755 516 797 546 
502 757 522 540 542 538 512 784 519 
794 523 505 764 545 539 517 557 513 
790 752 792 806 541 648 537 271 550 
514 809 801 775 805 802 781 796 808 
777 795 786 803 778 798 553 758 791 
800 763 759 753 762 783 793 780 754 
772 785 779 756 799 770 216 760 193 
339 102 55 186 136 160 357 199 161 
131 242 218 197 363 89 429 112 331 
384 425 234 237 69 63 206 130 433 
455 227 229 118 243 123 116 211 238 
157 149 169 223 175 204 84 62 155 
203 165 80 178 194 183 472 154 249 
179 222 90 127 310 120 87 332 208 
117 226 86 182 110 64 430 105 159 
407 404 75 231 399 174 484 367 740 
184 77 60 103 195 219 98 236 360 
151 121 177 143 239 156 487 431 392 
496 351 190 139 749 401 111 114 233 
91 20 416 397 323 113 389 482 72 
66 685 124 79 393 214 499 209 68 
344 413 202 330 328 380 724 96 232 
359 423 94 212 314 445 119 460 419 
313 101 85 122 73 213 189 333 147 
99 92 317 128 210 246 145 220 241 
180 352 448 142 185 78 88 198 150 
61 100 408 166 428 415 490 93 311 
163 240 462 492 570 346 427 471 387 
146 59 221 115 201 385 465 483 394 
391 82 126 245 196 109 106 412 495 
379 347 435 140 436 167 97 364 376 
366 315 464 491 188 341 451 437 422 
463 418 402 390 447 349 170 162 225 
176 439 224 153 334 76 388 168 81 
148 459 125 603 329 640 565 370 320 
95 134 192 207 200 679 709 457 369 
675 132 477 383 596 688 698 449 486 
468 382 129 655 642 632 678 732 365 
673 900 666 629 452 450 454 338 362 
730 680 563 335 398 727 912 438 173 
172 135 355 250 358 625 475 626 707 
498 152 70 466 470 396 456 561 343 
476 340 350 692 473 215 405 181 342 
622 598 494 74 480 137 244 368 373 
461 646 411 377 714 337 420 348 230 
371 386 674 409 406 414 481 474 594 
395 336 444 741 467 319 575 318 400 
722 620 322 728 590 560 171 581 702 
479 485 750 618 432 356 668 500 615 
592 381 616 71 564 623 442 879 898 
228 426 372 638 458 922 326 353 735 
325 571 567 613 577 945 663 652 441 
573 572 876 974 601 695 469 927 981 
992 967 862 703 417 440 747 645 915 
701 566 847 890 936 744 579 670 569 
593 738 930 589 979 316 656 903 611 
591 726 664 607 453 493 619 718 653 
410 658 609 446 870 606 354 217 108 
403 489 682 654 745 650 715 562 361 
421 497 488 617 599 610 624 700 424 
710 723 568 634 748 321 955 614 327 
312 578 828 660 733 739 585 588 743 
996 933 375 672 691 697 816 586 600 
587 621 595 665 597 576 643 651 644 
604 559 818 868 712 716 602 628 639 
662 720 988 734 608 999 708 925 746 
989 631 686 681 848 690 635 811 696 
641 729 693 699 860 853 906 919 612 
574 932 909 704 877 929 958 771 959 
896 649 717 961 886 921 984 971 835 
647 633 711 659 731 817 869 840 837 
942 964 882 814 627 684 843 705 582 
935 871 895 856 855 669 637 924 812 
917 953 657 859 683 584 374 324 671 
345 736 630 914 580 842 954 823 867 
719 742 908 815 824 897 902 583 976 
957 977 713 938 949 478 881 963 836 
721 948 968 826 905 844 694 676 636 
667 834 737 970 857 918 838 725 845 
993 852 889 893 880 944 822 947 987 
865 965 875 687 885 854 829 819 661 
940 952 980 986 827 830 858 978 874 
878 962 821 913 133 861 946 850 939 
928 907 841 997 825 916 941 833 901 
926 891 931 911 937 985 990 975 849 
998 910 813 863 943 888 873 883 677 
866 951 872 969 983 920 706 605 950 
851 846 934 894 1000 960 884 982 995 
956 966 904 973 923 994 831 899 972 
887 820 832 187 991 892 839 443 864 
144 
type 1 1000 int
1 1 1 1 1 1 1 1 1 
1 1 1 1 1 1 1 1 1 
1 1 1 1 1 1 1 1 1 
1 1 1 1 1 1 1 1 1 
1 1 1 1 1 1 1 1 1 
1 1 1 1 1 1 1 1 1 
1 1 1 1 1 1 1 1 1 
1 1 1 1 1 1 1 1 1 
1 1 1 1 1 1 1 1 1 
1 1 1 1 1 1 1 1 1 
1 1 1 1 1 1 1 1 1 
1 1 1 1 1 1 1 1 1 
1 1 1 1 1 1 1 1 1 
1 1 1 1 1 1 1 1 1 
1 1 1 1 1 1 1 1 1 
1 1 1 1 1 1 1 1 1 
1 1 1 1 1 1 1 1 1 
1 1 1 1 1 1 1 1 1 
1 1 1 1 1 1 1 1 1 
1 1 1 1 1 1 1 1 1 
1 1 1 1 1 1 1 1 1 
1 1 1 1 1 1 1 1 1 
1 1 1 1 1 1 1 1 1 
1 1 1 1 1 1 1 1 1 
1 1 1 1 1 1 1 1 1 
1 1 1 1 1 1 1 1 1 
1 1 1 1 1 1 1 1 1 
1 1 1 1 1 1 1 1 1 
1 1 1 1 1 1 1 1 1 
1 1 1 1 1 1 1 1 1 
1 1 1 1 1 1 1 1 1 
1 1 1 1 1 1 1 1 1 
1 1 1 1 1 1 1 1 1 
1 1 1 1 1 1 1 1 1 
1 1 1 1 1 1 1 1 1 
1 1 1 1 1 1 1 1 1 
1 1 1 1 1 1 1 1 1 
1 1 1 1 1 1 1 1 1 
1 1 1 1 1 1 1 1 1 
1 1 1 1 1 1 1 1 1 
1 1 1 1 1 1 1 1 1 
1 1 1 1 1 1 1 1 1 
1 1 1 1 1 1 1 1 1 
1 1 1 1 1 1 1 1 1 
1 1 1 1 1 1 1 1 1 
1 1 1 1 1 1 1 1 1 
1 1 1 1 1 1 1 1 1 
1 1 1 1 1 1 1 1 1 
1 1 1 1 1 1 1 1 1 
1 1 1 1 1 1 1 1 1 
1 1 1 1 1 1 1 1 1 
1 1 1 1 1 1 1 1 1 
1 1 1 1 1 1 1 1 1 
1 1 1 1 1 1 1 1 1 
1 1 1 1 1 1 1 1 1 
1 1 1 1 1 1 1 1 1 
1 1 1 1 1 1 1 1 1 
1 1 1 1 1 1 1 1 1 
1 1 1 1 1 1 1 1 1 
1 1 1 1 1 1 1 1 1 
1 1 1 1 1 1 1 1 1 
1 1 1 1 1 1 1 1 1 
1 1 1 1 1 1 1 1 1 
1 1 1 1 1 1 1 1 1 
1 1 1 1 1 1 1 1 1 
1 1 1 1 1 1 1 1 1 
1 1 1 1 1 1 1 1 1 
1 1 1 1 1 1 1 1 1 
1 1 1 1 1 1 1 1 1 
1 1 1 1 1 1 1 1 1 
1 1 1 1 1 1 1 1 1 
1 1 1 1 1 1 1 1 1 
1 1 1 1 1 1 1 1 1 
1 1 1 1 1 1 1 1 1 
1 1 1 1 1 1 1 1 1 
1 1 1 1 1 1 1 1 1 
1 1 1 1 1 1 1 1 1 
1 1 1 1 1 1 1 1 1 
1 1 1 1 1 1 1 1 1 
1 1 1 1 1 1 1 1 1 
1 1 1 1 1 1 1 1 1 
1 1 1 1 1 1 1 1 1 
1 1 1 1 1 1 1 1 1 
1 1 1 1 1 1 1 1 1 
1 1 1 1 1 1 1 1 1 
1 1 1 1 1 1 1 1 1 
1 1 1 1 1 1 1 1 1 
1 1 1 1 1 1 1 1 1 
1 1 1 1 1 1 1 1 1 
1 1 1 1 1 1 1 1 1 
1 1 1 1 1 1 1 1 1 
1 1 1 1 1 1 1 1 1 
1 1 1 1 1 1 1 1 1 
1 1 1 1 1 1 1 1 1 
1 1 1 1 1 1 1 1 1 
1 1 1 1 1 1 1 1 1 
1 1 1 1 1 1 1 1 1 
1 1 1 1 1 1 1 1 1 
1 1 1 1 1 1 1 1 1 
1 1 1 1 1 1 1 1 1 
1 1 1 1 1 1 1 1 1 
1 1 1 1 1 1 1 1 1 
1 1 1 1 1 1 1 1 1 
1 1 1 1 1 1 1 1 1 
1 1 1 1 1 1 1 1 1 
1 1 1 1 1 1 1 1 1 
1 1 1 1 1 1 1 1 1 
1 1 1 1 1 1 1 1 1 
1 1 1 1 1 1 1 1 1 
1 1 1 1 1 1 1 1 1 
1 1 1 1 1 1 1 1 1 
1 
i 3 1000 int
0 0 0 0 0 0 0 0 0 
0 0 0 0 0 0 0 0 0 
0 0 0 0 0 0 0 0 0 
0 0 0 0 0 0 0 0 0 
0 0 0 0 0 0 0 0 0 
0 0 0 0 0 0 0 0 0 
0 0 0 0 0 0 0 0 0 
0 0 0 0 0 0 0 0 0 
0 0 0 0 0 0 0 0 0 
0 0 0 0 0 0 0 0 0 
0 0 0 0 0 0 0 0 0 
0 0 0 0 0 0 0 0 0 
0 0 0 0 0 0 0 0 0 
0 0 0 0 0 0 0 0 0 
0 0 0 0 0 0 0 0 0 
0 0 0 0 0 0 0 0 0 
0 0 0 0 0 0 0 0 0 
0 0 0 0 0 0 0 0 0 
0 0 0 0 0 0 0 0 0 
0 0 0 0 0 0 0 0 0 
0 0 0 0 0 0 0 0 0 
0 0 0 0 0 0 0 0 0 
0 0 0 0 0 0 0 0 0 
0 0 0 0 0 0 0 0 0 
0 0 0 0 0 0 0 0 0 
0 0 0 0 0 0 0 0 0 
0 0 0 0 0 0 0 0 0 
0 0 0 0 0 0 0 0 0 
0 0 0 0 0 0 0 0 0 
0 0 0 0 0 0 0 0 0 
0 0 0 0 0 0 0 0 0 
0 0 0 0 0 0 0 0 0 
0 0 0 0 0 0 0 0 0 
0 0 0 0 0 0 0 0 0 
0 0 0 0 0 0 0 0 0 
0 0 0 0 0 0 0 0 0 
0 0 0 0 0 0 0 0 0 
0 0 0 0 0 0 0 0 0 
0 0 0 0 0 0 0 0 0 
0 0 0 0 0 0 0 0 0 
0 0 0 0 0 0 0 0 0 
0 0 0 0 0 0 0 0 0 
0 0 0 0 0 0 0 0 0 
0 0 0 0 0 0 0 0 0 
0 0 0 0 0 0 0 0 0 
0 0 0 0 0 0 0 0 0 
0 0 0 0 0 0 0 0 0 
0 0 0 0 0 0 0 0 0 
0 0 0 0 0 0 0 0 0 
0 0 0 0 0 0 0 0 0 
0 0 0 0 0 0 0 0 0 
0 0 0 0 0 0 0 0 0 
0 0 0 0 0 0 0 0 0 
0 0 0 0 0 0 0 0 0 
0 0 0 0 0 0 0 0 0 
0 0 0 0 0 0 0 0 0 
0 0 0 0 0 0 0 0 0 
0 0 0 0 0 0 0 0 0 
0 0 0 0 0 0 0 0 0 
0 0 0 0 0 0 0 0 0 
0 0 0 0 0 0 0 0 0 
0 0 0 0 0 0 0 0 0 
0 0 0 0 0 0 0 0 0 
0 0 0 0 0 0 0 0 0 
0 0 0 0 0 0 0 0 0 
0 0 0 0 0 0 0 0 0 
0 0 0 0 0 0 0 0 0 
0 0 0 0 0 0 0 0 0 
0 0 0 0 0 0 0 0 0 
0 0 0 0 0 0 0 0 0 
0 0 0 0 0 0 0 0 0 
0 0 0 0 0 0 0 0 0 
0 0 0 0 0 0 0 0 0 
0 0 0 0 0 0 0 0 0 
0 0 0 0 0 0 0 0 0 
0 0 0 0 0 0 0 0 0 
0 0 0 0 0 0 0 0 0 
0 0 0 0 0 0 0 0 0 
0 0 0 0 0 0 0 0 0 
0 0 0 0 0 0 0 0 0 
0 0 0 0 0 0 0 0 0 
0 0 0 0 0 0 0 0 0 
0 0 0 0 0 0 0 0 0 
0 0 0 0 0 0 0 0 0 
0 0 0 0 0 0 0 0 0 
0 0 0 0 0 0 0 0 0 
0 0 0 0 0 0 0 0 0 
0 0 0 0 0 0 0 0 0 
0 0 0 0 0 0 0 0 0 
0 0 0 0 0 0 0 0 0 
0 0 0 0 0 0 0 0 0 
0 0 0 0 0 0 0 0 0 
0 0 0 0 0 0 0 0 0 
0 0 0 0 0 0 0 0 0 
0 0 0 0 0 0 0 0 0 
0 0 0 0 0 0 0 0 0 
0 0 0 0 0 0 0 0 0 
0 0 0 0 0 0 0 0 0 
0 0 0 0 0 0 0 0 0 
0 0 0 0 0 0 0 0 0 
0 0 0 0 0 0 0 0 0 
0 0 0 0 0 0 0 0 0 
0 0 0 0 0 0 0 0 0 
0 0 0 0 0 0 0 0 0 
0 0 0 0 0 0 0 0 0 
0 0 0 0 0 0 0 0 0 
0 0 0 0 0 0 0 0 0 
0 0 0 0 0 0 0 0 0 
0 0 0 0 0 0 0 0 0 
0 0 0 0 0 0 0 0 0 
0 0 0 0 0 0 0 0 0 
0 0 0 0 0 0 0 0 0 
0 0 0 0 0 0 0 0 0 
0 0 0 0 0 0 0 0 0 
0 0 0 0 0 0 0 0 0 
0 0 0 0 0 0 0 0 0 
0 0 0 0 0 0 0 0 0 
0 0 0 0 0 0 0 0 0 
0 0 0 0 0 0 0 0 0 
0 0 0 0 0 0 0 0 0 
0 0 0 0 0 0 0 0 0 
0 0 0 0 0 0 0 0 0 
0 0 0 0 0 0 0 0 0 
0 0 0 0 0 0 0 0 0 
0 0 0 0 0 0 0 0 0 
0 0 0 0 0 0 0 0 0 
0 0 0 0 0 0 0 0 0 
0 0 0 0 0 0 0 0 0 
0 0 0 0 0 0 0 0 0 
0 0 0 0 0 0 0 0 0 
0 0 0 0 0 0 0 0 0 
0 0 0 0 0 0 0 0 0 
0 0 0 0 0 0 0 0 0 
0 0 0 0 0 0 0 0 0 
0 0 0 0 0 0 0 0 0 
0 0 0 0 0 0 0 0 0 
0 0 0 0 0 0 0 0 0 
0 0 0 0 0 0 0 0 0 
0 0 0 0 0 0 0 0 0 
0 0 0 0 0 0 0 0 0 
0 0 0 0 0 0 0 0 0 
0 0 0 0 0 0 0 0 0 
0 0 0 0 0 0 0 0 0 
0 0 0 0 0 0 0 0 0 
0 0 0 0 0 0 0 0 0 
0 0 0 0 0 0 0 0 0 
0 0 0 0 0 0 0 0 0 
0 0 0 0 0 0 0 0 0 
0 0 0 0 0 0 0 0 0 
0 0 0 0 0 0 0 0 0 
0 0 0 0 0 0 0 0 0 
0 0 0 0 0 0 0 0 0 
0 0 0 0 0 0 0 0 0 
0 0 0 0 0 0 0 0 0 
0 0 0 0 0 0 0 0 0 
0 0 0 0 0 0 0 0 0 
0 0 0 0 0 0 0 0 0 
0 0 0 0 0 0 0 0 0 
0 0 0 0 0 0 0 0 0 
0 0 0 0 0 0 0 0 0 
0 0 0 0 0 0 0 0 0 
0 0 0 0 0 0 0 0 0 
0 0 0 0 0 0 0 0 0 
0 0 0 0 0 0 0 0 0 
0 0 0 0 0 0 0 0 0 
0 0 0 0 0 0 0 0 0 
0 0 0 0 0 0 0 0 0 
0 0 0 0 0 0 0 0 0 
0 0 0 0 0 0 0 0 0 
0 0 0 0 0 0 0 0 0 
0 0 0 0 0 0 0 0 0 
0 0 0 0 0 0 0 0 0 
0 0 0 0 0 0 0 0 0 
0 0 0 0 0 0 0 0 0 
0 0 0 0 0 0 0 0 0 
0 0 0 0 0 0 0 0 0 
0 0 0 0 0 0 0 0 0 
0 0 0 0 0 0 0 0 0 
0 0 0 0 0 0 0 0 0 
0 0 0 0 0 0 0 0 0 
0 0 0 0 0 0 0 0 0 
0 0 0 0 0 0 0 0 0 
0 0 0 0 0 0 0 0 0 
0 0 0 0 0 0 0 0 0 
0 0 0 0 0 0 0 0 0 
0 0 0 0 0 0 0 0 0 
0 0 0 0 0 0 0 0 0 
0 0 0 0 0 0 0 0 0 
0 0 0 0 0 0 0 0 0 
0 0 0 0 0 0 0 0 0 
0 0 0 0 0 0 0 0 0 
0 0 0 0 0 0 0 0 0 
0 0 0 0 0 0 0 0 0 
0 0 0 0 0 0 0 0 0 
0 0 0 0 0 0 0 0 0 
0 0 0 0 0 0 0 0 0 
0 0 0 0 0 0 0 0 0 
0 0 0 0 0 0 0 0 0 
0 0 0 0 0 0 0 0 0 
0 0 0 0 0 0 0 0 0 
0 0 0 0 0 0 0 0 0 
0 0 0 0 0 0 0 0 0 
0 0 0 0 0 0 0 0 0 
0 0 0 0 0 0 0 0 0 
0 0 0 0 0 0 0 0 0 
0 0 0 0 0 0 0 0 0 
0 0 0 0 0 0 0 0 0 
0 0 0 0 0 0 0 0 0 
0 0 0 0 0 0 0 0 0 
0 0 0 0 0 0 0 0 0 
0 0 0 0 0 0 0 0 0 
0 0 0 0 0 0 0 0 0 
0 0 0 0 0 0 0 0 0 
0 0 0 0 0 0 0 0 0 
0 0 0 0 0 0 0 0 0 
0 0 0 0 0 0 0 0 0 
0 0 0 0 0 0 0 0 0 
0 0 0 0 0 0 0 0 0 
0 0 0 0 0 0 0 0 0 
0 0 0 0 0 0 0 0 0 
0 0 0 0 0 0 0 0 0 
0 0 0 0 0 0 0 0 0 
0 0 0 0 0 0 0 0 0 
0 0 0 0 0 0 0 0 0 
0 0 0 0 0 0 0 0 0 
0 0 0 0 0 0 0 0 0 
0 0 0 0 0 0 0 0 0 
0 0 0 0 0 0 0 0 0 
0 0 0 0 0 0 0 0 0 
0 0 0 0 0 0 0 0 0 
0 0 0 0 0 0 0 0 0 
0 0 0 0 0 0 0 0 0 
0 0 0 0 0 0 0 0 0 
0 0 0 0 0 0 0 0 0 
0 0 0 0 0 0 0 0 0 
0 0 0 0 0 0 0 0 0 
0 0 0 0 0 0 0 0 0 
0 0 0 0 0 0 0 0 0 
0 0 0 0 0 0 0 0 0 
0 0 0 0 0 0 0 0 0 
0 0 0 0 0 0 0 0 0 
0 0 0 0 0 0 0 0 0 
0 0 0 0 0 0 0 0 0 
0 0 0 0 0 0 0 0 0 
0 0 0 0 0 0 0 0 0 
0 0 0 0 0 0 0 0 0 
0 0 0 0 0 0 0 0 0 
0 0 0 0 0 0 0 0 0 
0 0 0 0 0 0 0 0 0 
0 0 0 0 0 0 0 0 0 
0 0 0 0 0 0 0 0 0 
0 0 0 0 0 0 0 0 0 
0 0 0 0 0 0 0 0 0 
0 0 0 0 0 0 0 0 0 
0 0 0 0 0 0 0 0 0 
0 0 0 0 0 0 0 0 0 
0 0 0 0 0 0 0 0 0 
0 0 0 0 0 0 0 0 0 
0 0 0 0 0 0 0 0 0 
0 0 0 0 0 0 0 0 0 
0 0 0 0 0 0 0 0 0 
0 0 0 0 0 0 0 0 0 
0 0 0 0 0 0 0 0 0 
0 0 0 0 0 0 0 0 0 
0 0 0 0 0 0 0 0 0 
0 0 0 0 0 0 0 0 0 
0 0 0 0 0 0 0 0 0 
0 0 0 0 0 0 0 0 0 
0 0 0 0 0 0 0 0 0 
0 0 0 0 0 0 0 0 0 
0 0 0 0 0 0 0 0 0 
0 0 0 0 0 0 0 0 0 
0 0 0 0 0 0 0 0 0 
0 0 0 0 0 0 0 0 0 
0 0 0 0 0 0 0 0 0 
0 0 0 0 0 0 0 0 0 
0 0 0 0 0 0 0 0 0 
0 0 0 0 0 0 0 0 0 
0 0 0 0 0 0 0 0 0 
0 0 0 0 0 0 0 0 0 
0 0 0 0 0 0 0 0 0 
0 0 0 0 0 0 0 0 0 
0 0 0 0 0 0 0 0 0 
0 0 0 0 0 0 0 0 0 
0 0 0 0 0 0 0 0 0 
0 0 0 0 0 0 0 0 0 
0 0 0 0 0 0 0 0 0 
0 0 0 0 0 0 0 0 0 
0 0 0 0 0 0 0 0 0 
0 0 0 0 0 0 0 0 0 
0 0 0 0 0 0 0 0 0 
0 0 0 0 0 0 0 0 0 
0 0 0 0 0 0 0 0 0 
0 0 0 0 0 0 0 0 0 
0 0 0 0 0 0 0 0 0 
0 0 0 0 0 0 0 0 0 
0 0 0 0 0 0 0 0 0 
0 0 0 0 0 0 0 0 0 
0 0 0 0 0 0 0 0 0 
0 0 0 0 0 0 0 0 0 
0 0 0 0 0 0 0 0 0 
0 0 0 0 0 0 0 0 0 
0 0 0 0 0 0 0 0 0 
0 0 0 0 0 0 0 0 0 
0 0 0 0 0 0 0 0 0 
0 0 0 0 0 0 0 0 0 
0 0 0 0 0 0 0 0 0 
0 0 0 0 0 0 0 0 0 
0 0 0 0 0 0 0 0 0 
0 0 0 0 0 0 0 0 0 
0 0 0 0 0 0 0 0 0 
0 0 0 0 0 0 0 0 0 
0 0 0 0 0 0 0 0 0 
0 0 0 0 0 0 0 0 0 
0 0 0 0 0 0 0 0 0 
0 0 0 0 0 0 0 0 0 
0 0 0 0 0 0 0 0 0 
0 0 0 0 0 0 0 0 0 
0 0 0 0 0 0 0 0 0 
0 0 0 0 0 0 0 0 0 
0 0 0 0 0 0 0 0 0 
0 0 0 0 0 0 0 0 0 
0 0 0 0 0 0 0 0 0 
0 0 0 0 0 0 0 0 0 
0 0 0 0 0 0 0 0 0 
0 0 0 0 0 0 0 0 0 
0 0 0 0 0 0 0 0 0 
0 0 0 0 0 0 0 0 0 
0 0 0 0 0 0 0 0 0 
0 0 0 0 0 0 0 0 0 
0 0 0 0 0 0 0 0 0 
0 0 0 0 0 0 0 0 0 
0 0 0 0 0 0 0 0 0 
0 0 0 
v 3 1000 double
0.20381247824 0.17207285514 0.0049381336263 -0.062486769794 0.35383930531 -0.019105714906 -0.040792338342 -0.0029412966177 -0.0016475770502 
0.022077232416 0.014951482196 0.01610244324 0.015211257077 0.013525841649 -0.0034070798094 -0.014526858145 -0.024563472577 -0.01380796091 
0.00031756001454 -0.0042979415313 0.0087353729078 0.0012066995219 -0.00028364123631 0.0055438453281 -0.042894618452 0.0099130598687 0.0073707329503 
-0.012570592187 0.0074102871865 0.0014183192789 -5.8005784398e-05 -0.0056137303834 -0.0016673023454 -0.0017219070106 -0.0050330346359 0.00095912713893 
-0.0012959415826 -0.0026458523342 -0.0017032659196 0.00042827020217 -0.002236676369 0.0018940950458 -0.00063812392984 -0.0035043348744 0.0093161509442 
-0.001799360377 -0.0016523687681 0.009369093863 0.16400113841 0.046446546468 -0.0054285738692 -0.0021286857202 0.0022027766103 0.00077575991973 
-0.0069580091937 0.0030895024203 -0.0018477256045 -0.0078114099006 0.0064692107242 -0.0001855955446 -0.0060765219983 -0.0021704664725 1.2072105173e-05 
-0.0056265512879 -0.0053817617682 -0.0076326964963 -0.0026099777063 -0.0027527618953 -0.0066595231488 -0.0012585818596 -0.0012669698963 0.00051274734439 
0.00017880930625 -0.0019905756984 0.0030464154356 0.00066970447433 -0.0020385013911 0.0034798980299 -0.00066885825701 -0.0030836455549 0.0076565885896 
-0.00046202411873 -0.0021989169185 0.010190182822 3.5961704385e-05 -0.004882089218 0.015606054277 -0.0019290560313 -0.0044136454601 0.012487490166 
0.1840177862 0.046094269665 0.005494152821 0.16572487531 0.038809431678 -0.011164015605 0.00086303577017 0.0042929290771 -0.0023873490906 
9.3891945187e-05 -0.0030284420646 -0.0032304306377 -0.0062231564737 -0.00043912882496 -0.010597498255 -0.0022977524887 -0.0022360582744 -0.00080405514388 
-0.00042972638807 -0.00080542832487 0.0012834436529 -0.00079192885491 -0.0027542528476 0.0091471411878 0.0005077860881 -0.0037524311263 0.012426497598 
0.00018462737642 -0.0039641971432 0.013490614077 -0.0029999003632 -0.0052409491456 -0.0013284839125 -0.0091639399562 0.0003557456581 -0.0046938208974 
-0.0039433833659 -0.0036185332344 -0.0078008151002 -0.00071902950684 0.0005361559668 0.0017626911264 -0.0022640250601 -6.7431058366e-05 0.0048703943869 
-0.0016197914426 -0.0042889064244 0.0069680906364 -0.0010926036936 -0.00383651942 0.009669377226 0.00047654515999 -0.003589803312 0.012340036294 
-0.00027164496976 -0.0010622119628 -0.003731354783 0.0013241978488 -0.0019119935115 -0.0036149130926 -0.0086901033893 -0.0031209087675 -0.0040308722894 
-0.012431386381 0.0018324426486 -0.0047575343966 -0.0074899168028 0.0094535638919 -0.00083427110571 -0.0017225606543 0.0010028628733 0.0007930795908 
0.002007000678 -0.0052591947532 0.0007911682488 -0.013369655912 -0.0054275391556 0.002544009396 -0.16305475273 0.16545971926 -0.049209121799 
0.038964516023 0.044696361064 -0.0015143967857 -0.020878071348 -0.0018652157445 -0.0040066703035 0.23452876904 0.11836761611 0.66873521956 
0.012997147627 0.017296599257 -0.015762482925 -0.0051012251449 -0.0091824874884 -0.0017873423353 -0.019369185104 -0.012729726827 -0.0070795364389 
-0.0040588425633 0.0012351574788 0.007629656126 -0.0094483559776 0.0099042892151 5.8381581239e-05 -0.01793389969 -0.0050320256788 0.0078879732513 
-0.010670981112 -0.012727955062 -0.0010134995365 -0.007819271449 -0.0073723875465 -0.0046380953549 -0.0083126126725 -0.0065796849071 -0.0069899665996 
-0.0011279628379 -0.0019264892263 0.0063078863614 -0.0019952718655 -0.00047632622792 0.010263004833 -0.0005661979158 -0.0027149913124 0.010623350596 
0.0013839899287 0.0007529143589 -0.0020984958197 -0.00097099585441 -0.00045504782436 -0.004291887248 -0.0068537964569 0.004760062798 0.00094413295893 
-0.0022754313432 -0.00024615834969 0.00072771788916 -0.0016231788651 -0.0001427934477 0.0031047064864 -0.0024578019064 -0.0009540118049 0.005609992554 
-0.0024479058797 -0.0012197573923 0.008933858232 -0.0028947447974 -0.0019261091334 0.0095133290168 -0.0033000483257 -0.0029807290096 0.01258534684 
-0.00021300767597 -0.0036302718723 0.015463555963 0.16980376133 0.059894272299 -0.033559122628 0.15376286145 0.024829811397 -0.003676848972 
-0.0041439916248 0.0030647990999 -0.0022510636011 -0.00082451793594 -0.0046452068125 -0.00037305788036 0.0020686653213 -0.0043721644093 -0.0025753147882 
-0.00035123284145 -0.00039259202873 -0.0020065308337 -0.001355662945 -0.00044709950487 -0.0078459401599 -0.0025525355459 0.00054147962612 -0.00030424469064 
-0.0030333975589 -0.00081799408848 0.0046324938339 -0.0011105801751 -0.003359853124 0.0064407429436 -0.0030612061964 -0.0026187048427 0.0090652511319 
-0.0025283453583 -0.003176169079 0.012245621079 -0.00049191572596 -0.0035456477334 0.014073211817 -0.00060238352982 -0.0046161090053 0.013855343249 
0.0016591544546 0.0010600659818 0.0010593527524 -0.0008802481034 -0.00012458837092 -0.00064569625862 -0.0017050402142 -0.0049524568523 -0.00045541391262 
-0.0015086853999 -0.0052895437719 -0.001260468608 -0.0037404349915 -0.0064148864387 -0.0028169478649 -0.0051633727549 -0.0021559645623 -0.0030731237637 
-0.0059366859656 0.00014469024631 -0.0085895028314 -0.006061636582 -4.3671405855e-05 -0.0029815678757 -0.0035925427576 0.0020405664188 -0.00036025758415 
-0.0044085902772 0.0021077533192 0.0021956960388 -0.0034430195646 -0.00084364390112 0.006408612526 -0.0025440883233 -0.00084831158637 0.0071391430971 
-0.0013089831365 -0.0025513843479 0.0070312115442 -0.00057236292711 -0.0030071293111 0.013313260659 0.0014742276822 -0.002578941459 0.013212792062 
-0.0035761351362 -0.0056905169758 0.0071429176982 0.0032770821319 -0.011257370428 0.00097823508414 -0.0063654165723 0.00030423008122 -0.0041809603869 
-0.0056973543368 0.0056841384848 -0.00030695636146 -0.0047008336352 0.0021490554195 0.00050345466628 -0.00061491693272 0.0011442063974 -0.002474064699 
0.0009345056933 -0.0026297737136 0.0080197314257 -0.00073781084248 -0.00011317360389 0.020559812894 -0.021056554456 0.0062477300545 -0.02382418764 
-0.012690947987 -0.015569707288 0.0017014041881 -0.010131045823 -0.015707378955 0.001741436587 -0.0097784968317 -0.0069757071009 -0.0010076255097 
-0.0086191570236 -0.0086735978605 -0.0083556894046 -0.0045005648015 -0.00027331168866 -0.0025344634143 -0.01187679659 0.005372157395 0.0035924066731 
-0.0091913421553 -0.0030298960183 -0.0038599041633 -0.012506283937 0.0063960329598 -0.00026318436443 -0.00056712620148 0.00083833446017 0.010875942571 
-0.0031588994472 0.00076147650569 0.010034974952 -0.0062156580804 -0.0053456452314 0.0069700486808 -0.0028608453508 -0.0083714135951 -0.010159366525 
-0.0090221728221 -0.0024280349871 -9.2131775571e-06 -0.0039549279827 -0.0026105139648 -0.00030637340707 -0.0017231195689 -0.00086037907831 0.0027958115625 
-0.0034409509256 -0.0028652594149 -0.0038656166296 -0.0026124636559 -0.00083878805792 -0.0057936383328 -0.0033007250877 -0.00064186005232 -0.0041289879844 
-0.0029363334029 0.0013577712343 0.0067776082523 -0.00377982129 0.0020406670353 0.0028601796007 -0.0028053056285 0.0005484085899 0.011035987917 
-0.0052900885553 -0.0032902683294 0.010320079807 0.00062117227278 -0.0051272251828 -0.0029690725514 -0.0020779389314 -0.0015671459534 -0.0013219976764 
-0.0022946254994 -0.0013755054375 -0.0042897061729 -0.0015635757864 -0.00060483153057 -0.0070125200454 -0.0034660607703 0.00040322531563 -0.0054169894213 