# vtk DataFile Version 4.1
Generated by LIGGGHTS
ASCII
DATASET POLYDATA
POINTS 1000 float
0.00391103 -0.0319843 0.00164861 0.00105833 -0.0319002 0.00161333 0.00254966 -0.0295022 0.00203548 
-0.000781475 -0.016114 0.00155945 0.00595499 -0.0160385 0.00152493 0.00216726 -0.0132641 0.00151693 
0.005014 -0.0133471 0.00171425 0.00781214 -0.0138787 0.00155357 0.0165738 -0.0126189 0.0018902 
0.022003 -0.012853 0.00148853 0.00247292 -0.0104453 0.0016674 0.00533306 -0.0104881 0.00151542 
0.00819847 -0.0104195 0.00152782 0.0110462 -0.0103496 0.00148848 0.0136536 -0.0115073 0.00152541 
0.019312 -0.0118898 0.00157485 0.0229472 -0.0103297 0.00243268 -0.0407883 -0.00956434 0.00192086 
-0.0433166 -0.00832059 0.00147534 -0.00633469 -0.00764465 0.00148038 -0.00447542 -0.00960892 0.00235772 
-0.000327601 -0.00990823 0.00153073 0.0038915 -0.00799701 0.0016184 0.00673371 -0.00799245 0.00165778 
0.00957642 -0.00789466 0.00151542 0.0123854 -0.00789808 0.00207505 0.0149833 -0.00899428 0.00151687 
0.0203301 -0.00926409 0.00196444 0.0254155 -0.00901355 0.00188368 0.0282138 -0.00941553 0.00154045 
0.0322661 -0.0078551 0.00164618 -0.0409538 -0.00672375 0.00168803 -0.0194978 -0.00630529 0.0047959 
-0.00354422 -0.00702873 0.00152356 -0.000737636 -0.00714629 0.00207827 0.00805494 -0.0054628 0.0015408 
0.0129671 -0.00516067 0.00149644 0.0156007 -0.00622211 0.00151675 0.0181624 -0.00746801 0.00148989 
0.0237468 -0.00670787 0.00185299 0.0271378 -0.00676117 0.00155771 0.0312982 -0.00517234 0.00175493 
-0.000861504 -0.00271921 0.00147958 0.0063208 -0.00318348 0.00152405 0.0111716 -0.0029709 0.0018321 
0.0175484 -0.00414627 0.00149941 0.0202378 -0.00373696 0.00230241 0.0229828 -0.0039787 0.00160072 
0.0257676 -0.00430699 0.00209487 0.0285824 -0.0042957 0.00158954 -0.00490004 -0.000456247 0.00207614 
-0.00207671 -0.000306991 0.00240844 0.00405739 -0.00143218 0.00154777 0.00669673 -0.000352615 0.001523 
0.0140268 -0.000146477 0.00199731 0.0175579 -0.00129818 0.00147434 0.0226379 -0.0011464 0.0016309 
0.0349946 -0.00187621 0.00150247 0.00342487 -0.0155175 0.0027114 0.00562816 -0.0173302 0.00405323 
0.00221743 -0.013532 0.00436282 0.00636896 -0.014567 0.00392772 0.00913246 -0.0128683 0.0038601 
0.0145969 -0.0133438 0.00381798 0.000789382 -0.01111 0.00386162 0.00402283 -0.011376 0.00387699 
0.0070623 -0.0110398 0.00457611 0.0119173 -0.0123785 0.00360166 0.010124 -0.010214 0.00418162 
0.0182241 -0.0122272 0.00418645 0.021315 -0.0119593 0.00410406 -0.0420338 -0.00802803 0.00398769 
-0.0054249 -0.00760848 0.00417591 -0.00262984 -0.00816343 0.00396177 0.00261555 -0.0088955 0.0040539 
0.0135701 -0.00908289 0.00438381 0.0160601 -0.00779145 0.00386955 0.0174296 -0.00998633 0.00261048 
0.0188881 -0.0080731 0.00416801 0.0214869 -0.00914778 0.00457174 0.0243246 -0.00892424 0.00451688 
0.0271478 -0.00899012 0.00415361 0.0307193 -0.00996264 0.00279339 -0.0434129 -0.00581083 0.00281513 
-0.00741796 -0.00574464 0.00329171 -0.000322679 -0.00679348 0.00489819 -0.00237643 -0.00534906 0.00353002 
0.00284399 -0.00610316 0.00346034 0.00595478 -0.00690268 0.0041796 0.0136411 -0.00625678 0.00405215 
0.0192411 -0.00524274 0.00450661 0.0211503 -0.00676801 0.00303005 0.0243833 -0.00607112 0.00456522 
0.027235 -0.00613974 0.00433585 0.0296861 -0.00730217 0.00274198 0.0320317 -0.00652036 0.00416104 
-0.00587641 -0.00345168 0.00404816 -0.00342303 -0.00281205 0.00272825 -0.0010551 -0.00256707 0.00430499 
0.000380374 -0.00471653 0.00308192 0.00176758 -0.00276693 0.00462303 0.00421698 -0.00358453 0.00341713 
0.00865493 -0.00317097 0.00314677 0.0132405 -0.00342741 0.0037333 0.0158693 -0.00450012 0.00378614 
0.0180782 -0.00270292 0.00389458 0.0212511 -0.00326302 0.00492506 0.0240155 -0.00327482 0.0041544 
0.0267888 -0.00261404 0.00414319 0.0297477 -0.0048036 0.00413411 0.030601 -0.00253946 0.00259105 
-0.00746287 -0.00162018 0.00254265 0.000689877 -0.000781283 0.00289155 0.00632949 -0.00174159 0.00398249 
0.0132704 -0.000203561 0.00475615 0.0165986 -0.000237399 0.00391616 0.0200522 -0.000945347 0.00282694 
0.0287147 -0.000614435 0.00350909 0.0324812 -0.00114268 0.00423426 0.00410366 -0.0153736 0.0054711 
0.00532429 -0.0128348 0.0059451 0.00814337 -0.0142397 0.00615158 0.0109225 -0.0136121 0.00597457 
-0.00294617 -0.0103964 0.00730905 -0.00032245 -0.0122876 0.006206 0.00238354 -0.0113605 0.00621027 
0.0106125 -0.0109376 0.00688555 0.0133361 -0.0120913 0.00605396 0.017476 -0.0123384 0.00692937 
0.019734 -0.0107761 0.00615219 0.0244018 -0.0103908 0.00696343 -0.00517058 -0.00766159 0.00702586 
-0.000786156 -0.00952252 0.00564336 -0.00231319 -0.0076211 0.00712125 0.00168736 -0.0086577 0.00676576 
0.0050405 -0.00925985 0.00551233 0.00898006 -0.00783277 0.00529229 0.011592 -0.00832471 0.0062995 
0.0171213 -0.00992094 0.00544057 0.0150656 -0.00841633 0.00671529 0.0218151 -0.00927807 0.0073997 
0.0244872 -0.00753344 0.00700896 -0.00437307 -0.00534782 0.00555992 0.00165109 -0.00580596 0.00671981 
0.00426911 -0.00520674 0.00575456 0.00654557 -0.00646695 0.0069224 0.00930867 -0.00605 0.00750793 
0.0115237 -0.005498 0.00581265 0.0217416 -0.00597148 0.00568636 0.0272537 -0.00677522 0.00712207 
-0.00836163 -0.00440215 0.00561144 -0.00600505 -0.00343414 0.00690544 -0.00361862 -0.00260339 0.00556784 
-0.00168112 -0.00461348 0.00618595 0.0032392 -0.00289133 0.00706594 0.00688888 -0.00433946 0.00505894 
0.0094877 -0.0034794 0.00586888 0.0125531 -0.00290485 0.00642999 0.0146415 -0.00484992 0.00633271 
0.019204 -0.0036516 0.00688496 0.0232729 -0.0038733 0.0068467 0.0259934 -0.00439502 0.00622399 
0.0287802 -0.00435837 0.00678595 -0.010151 -0.000492828 0.00682345 -0.00763477 -0.00165888 0.00539202 
8.75913e-05 -0.00249287 0.00691652 0.00660409 -0.000272308 0.00640182 0.015174 -0.00219695 0.00543305 
0.0177188 -0.0012843 0.00634229 0.0225923 -0.00115642 0.00629491 0.0271746 -0.00205255 0.00732176 
0.0301115 -0.0022628 0.00537994 -0.0243348 -0.0181053 0.00910286 0.00361353 -0.0129788 0.00822192 
0.00615704 -0.0140695 0.00888779 0.00892211 -0.014777 0.00885327 0.0111484 -0.0129899 0.00876536 
0.00304482 -0.0102264 0.00874336 0.00552185 -0.0113751 0.00961579 0.00745556 -0.0118846 0.00758736 
0.00825937 -0.0106233 0.0100207 0.0118515 -0.0102606 0.00936093 0.0167182 -0.0107551 0.00917431 
0.0208474 -0.0120994 0.00872261 -0.00443436 -0.00910008 0.00937647 0.000123694 -0.00905596 0.00912652 
0.00614968 -0.00884516 0.0084568 0.00963313 -0.00873557 0.00836091 0.0130808 -0.0077734 0.00866245 
0.0158251 -0.00784769 0.00941419 0.0193371 -0.00967908 0.00875498 -0.00723449 -0.00584622 0.00779269 
-0.00308975 -0.00659041 0.00965694 -0.000571582 -0.00583992 0.0085107 0.00392389 -0.00719939 0.00776615 
0.00650084 -0.00591804 0.00969733 0.0199381 -0.00714527 0.00756107 0.0224545 -0.0061082 0.00843821 
-0.0095792 -0.00501648 0.00919314 -0.00859637 -0.00268077 0.00787062 -0.00702845 -0.00393994 0.00990174 
-0.00374965 -0.00403436 0.00855607 -0.000536644 -0.00283043 0.0096759 0.00361121 -0.00355305 0.0098188 
0.00745619 -0.00393058 0.00783945 0.0101858 -0.00357406 0.0086341 0.0126575 -0.00497392 0.0083868 
0.012539 -0.00260408 0.00997168 0.0166056 -0.00327119 0.00805966 0.0187883 -0.00263341 0.00977507 
0.025614 -0.00375634 0.00899417 -0.0103871 -0.00125815 0.0095716 -0.00512845 -0.00152208 0.00882008 
-0.0024224 -0.00158446 0.00793964 0.00110634 -0.00065288 0.00885292 0.00553032 -0.00192818 0.00846675 
0.014369 -0.00148706 0.00808359 0.0169219 -0.00061032 0.00901272 0.0201661 -0.00111345 0.00779501 
0.0246349 -0.00117094 0.00828852 0.0298797 -0.00214235 0.00822466 0.00424395 -0.0135609 0.0109455 
0.0143907 -0.00999134 0.0106436 0.000837685 -0.00939638 0.0118717 0.00247532 -0.00780907 0.0101541 
0.00783105 -0.00801319 0.0111027 0.0108991 -0.00796914 0.0107927 0.0132475 -0.00806867 0.0124185 
0.0178555 -0.00896683 0.0110754 0.0217904 -0.00984059 0.0101939 -0.000647768 -0.00709746 0.0110646 
0.00220914 -0.00578648 0.0121552 0.00926099 -0.00565382 0.0103465 0.014072 -0.00597955 0.0106564 
0.0166528 -0.00648593 0.0117808 0.019045 -0.00651537 0.0102068 0.0231416 -0.00742102 0.0108796 
-0.00306913 -0.00427477 0.0113253 -0.000304227 -0.00442985 0.0120227 0.00494535 -0.0050039 0.0118907 
0.00735859 -0.00362655 0.0111411 0.010162 -0.00318009 0.0114558 0.0174483 -0.00376488 0.0120234 
0.015381 -0.00248391 0.0105338 0.0207797 -0.00478501 0.011689 0.0234293 -0.00459037 0.0106368 
0.00161616 -0.00238408 0.0114899 0.00500932 -0.00216654 0.0118887 0.00747684 -0.000794538 0.0115395 
0.0215933 -0.00244381 0.0102546 0.0122632 -0.00170211 0.0126837 -0.0361421 -0.0230529 0.0298783 
-0.00945288 0.000123616 0.00149324 -0.00751545 0.00202548 0.00237862 -0.00352502 0.00197869 0.00149824 
0.0164416 0.00132078 0.00153299 0.0215675 0.00141692 0.00229073 0.0329594 0.0001245 0.00171871 
0.0356977 0.000883877 0.0017071 -0.0100847 0.00289878 0.00148682 -0.00559453 0.00394657 0.00148589 
0.0160922 0.00406359 0.00225742 0.0249916 0.00315978 0.00150739 0.0274037 0.00431467 0.00250089 
0.0337144 0.00281448 0.00238621 -0.0119341 0.00724084 0.00198231 -0.00632623 0.00672663 0.00153861 
0.000376241 0.00600839 0.00153367 0.0113809 0.00690359 0.00151512 0.0182977 0.00571466 0.00152014 
0.0281617 0.00704827 0.00226915 0.0309135 0.00630103 0.00232805 0.0345685 0.00547508 0.00180465 
-0.00370494 0.00989118 0.00221972 0.00119458 0.00873748 0.00154231 0.00893254 0.00847315 0.00151226 
0.0114445 0.00975194 0.00160365 0.0331912 0.00797122 0.00195216 -0.012022 0.0100998 0.00203676 
-0.00984865 0.0118892 0.00149434 -0.00711544 0.011353 0.00216869 -0.00101591 0.0105453 0.00147307 
0.00353456 0.0102036 0.00222741 0.00623396 0.0109537 0.00157706 0.0090787 0.0113438 0.00162738 
0.0139622 0.0110377 0.00192892 0.0192107 0.0118711 0.00197797 0.024061 0.011465 0.00199898 
0.0264609 0.00998813 0.00158954 0.0292955 0.0103455 0.0014735 -0.0115196 0.0140845 0.0022578 
-0.0088081 0.0145558 0.00149437 0.00419848 0.0129319 0.0018755 0.009532 0.0141571 0.00187055 
0.0167922 0.0133161 0.00149191 0.0212173 0.013917 0.00202787 0.0240454 0.0142947 0.00171792 
[...]
POINT_DATA 1000
FIELD FieldData 7
id 1 1000 int
41 10 24 18 49 266 25 280 297 
3 263 22 12 290 285 53 27 29 
83 302 36 282 268 251 277 295 37 
48 21 9 141 23 216 17 2 16 
50 30 46 15 39 247 43 104 38 
33 7 19 274 309 191 107 235 6 
378 138 164 248 254 1 252 52 262 
504 298 256 535 301 520 296 272 51 
270 58 306 258 13 56 45 294 264 
260 32 40 259 253 28 287 278 31 
273 4 281 305 34 65 304 205 54 
47 303 308 44 8 5 42 289 261 
527 292 279 291 11 35 434 67 14 
554 689 26 267 551 558 761 509 531 
555 544 543 501 533 549 524 525 508 
548 552 526 257 518 521 503 293 534 
283 528 532 286 284 767 507 506 276 
255 510 265 275 300 269 556 307 530 
788 804 529 536 158 299 288 547 807 
511 20 515 810 773 766 769 787 789 
805 774 782 751 768 765 776 755 516 
797 546 502 757 522 540 542 538 512 
784 519 794 523 505 764 545 539 517 
557 513 790 752 792 806 541 648 537 
271 550 514 809 801 775 802 781 796 
808 777 795 786 803 778 798 553 758 
791 800 763 759 753 762 783 793 780 
754 772 785 779 756 799 770 760 57 
193 339 102 55 186 136 160 357 199 
161 131 242 218 363 89 429 112 331 
384 425 234 237 69 63 206 433 455 
227 229 118 243 123 116 211 238 157 
130 149 223 175 204 84 62 155 203 
165 80 169 178 194 183 472 154 249 
179 222 90 197 127 310 120 87 332 
208 117 226 86 182 110 64 430 105 
159 407 404 75 231 399 174 484 740 
184 77 60 103 195 367 98 236 360 
151 168 177 143 239 156 487 431 392 
496 190 139 749 401 114 91 233 416 
397 323 113 389 482 72 66 685 393 
214 499 209 68 344 413 202 330 328 
380 724 96 232 359 423 94 212 314 
445 563 119 460 727 419 313 101 85 
122 73 213 189 333 147 99 92 317 
128 210 246 145 220 241 180 352 448 
142 185 78 88 198 150 61 100 408 
166 428 415 490 93 124 311 163 240 
462 492 570 346 427 471 387 146 59 
79 221 115 201 385 465 483 394 391 
82 126 245 196 109 106 412 495 379 
347 435 140 436 167 97 364 376 144 
366 315 464 491 188 341 451 437 422 
463 418 402 390 447 349 170 162 225 
176 439 224 153 334 76 388 219 81 
148 459 125 603 329 640 565 121 370 
320 95 134 111 192 207 200 679 709 
457 369 132 477 383 596 688 698 449 
486 468 382 129 655 675 642 632 678 
732 365 673 900 666 629 452 450 454 
338 362 730 680 335 398 912 438 173 
172 135 355 250 358 625 475 626 707 
498 152 70 466 470 396 456 561 343 
476 340 350 692 473 215 405 181 342 
622 598 494 74 480 137 244 368 373 
461 646 411 377 714 337 420 348 230 
371 386 674 409 406 414 481 474 594 
395 336 444 741 467 319 575 318 400 
722 620 322 728 590 560 171 581 702 
479 485 750 618 432 356 668 500 615 
592 381 616 71 564 623 442 879 898 
228 426 372 638 458 922 326 353 735 
325 571 567 613 577 663 945 652 441 
573 572 876 974 601 695 469 927 981 
992 967 862 703 417 440 747 645 915 
701 566 847 890 936 744 579 670 569 
593 738 930 589 979 316 656 903 611 
591 726 664 607 453 493 619 718 653 
410 658 609 446 870 606 354 217 108 
403 630 489 682 654 745 650 955 715 
562 361 421 497 488 617 599 610 624 
700 424 710 723 568 634 748 321 614 
327 312 578 828 660 733 739 585 588 
743 996 933 375 672 691 697 816 586 
600 587 621 595 665 597 576 643 651 
644 559 818 868 712 716 602 628 639 
662 720 988 604 734 608 999 708 925 
746 989 631 686 681 848 690 635 811 
696 641 729 693 699 860 853 906 919 
612 574 932 909 704 877 929 958 771 
959 896 649 717 961 886 921 984 971 
835 647 684 633 711 659 731 869 840 
837 942 964 882 814 627 843 705 582 
817 935 871 895 856 855 669 637 924 
812 917 953 657 859 683 584 374 671 
324 345 736 914 580 842 954 823 867 
719 742 908 815 824 897 902 583 976 
957 977 713 938 949 478 881 963 836 
721 948 968 826 905 844 694 676 636 
667 834 737 970 857 918 838 725 845 
993 852 889 893 880 944 822 947 987 
865 965 875 687 885 854 829 819 661 
940 952 980 986 827 830 858 978 874 
878 962 821 913 133 861 946 850 939 
928 907 841 997 825 916 833 941 901 
891 931 911 937 985 990 926 975 849 
998 910 872 813 863 943 888 873 883 
677 866 951 969 983 920 706 605 950 
851 846 934 894 1000 960 884 982 995 
956 966 904 973 923 994 831 899 972 
887 820 832 187 991 892 839 443 351 
864 
type 1 1000 int
1 1 1 1 1 1 1 1 1 
1 1 1 1 1 1 1 1 1 
1 1 1 1 1 1 1 1 1 
1 1 1 1 1 1 1 1 1 
1 1 1 1 1 1 1 1 1 
1 1 1 1 1 1 1 1 1 
1 1 1 1 1 1 1 1 1 
1 1 1 1 1 1 1 1 1 
1 1 1 1 1 1 1 1 1 
1 1 1 1 1 1 1 1 1 
1 1 1 1 1 1 1 1 1 
1 1 1 1 1 1 1 1 1 
1 1 1 1 1 1 1 1 1 
1 1 1 1 1 1 1 1 1 
1 1 1 1 1 1 1 1 1 
1 1 1 1 1 1 1 1 1 
1 1 1 1 1 1 1 1 1 
1 1 1 1 1 1 1 1 1 
1 1 1 1 1 1 1 1 1 
1 1 1 1 1 1 1 1 1 
1 1 1 1 1 1 1 1 1 
1 1 1 1 1 1 1 1 1 
1 1 1 1 1 1 1 1 1 
1 1 1 1 1 1 1 1 1 
1 1 1 1 1 1 1 1 1 
1 1 1 1 1 1 1 1 1 
1 1 1 1 1 1 1 1 1 
1 1 1 1 1 1 1 1 1 
1 1 1 1 1 1 1 1 1 
1 1 1 1 1 1 1 1 1 
1 1 1 1 1 1 1 1 1 
1 1 1 1 1 1 1 1 1 
1 1 1 1 1 1 1 1 1 
1 1 1 1 1 1 1 1 1 
1 1 1 1 1 1 1 1 1 
1 1 1 1 1 1 1 1 1 
1 1 1 1 1 1 1 1 1 
1 1 1 1 1 1 1 1 1 
1 1 1 1 1 1 1 1 1 
1 1 1 1 1 1 1 1 1 
1 1 1 1 1 1 1 1 1 
1 1 1 1 1 1 1 1 1 
1 1 1 1 1 1 1 1 1 
1 1 1 1 1 1 1 1 1 
1 1 1 1 1 1 1 1 1 
1 1 1 1 1 1 1 1 1 
1 1 1 1 1 1 1 1 1 
1 1 1 1 1 1 1 1 1 
1 1 1 1 1 1 1 1 1 
1 1 1 1 1 1 1 1 1 
1 1 1 1 1 1 1 1 1 
1 1 1 1 1 1 1 1 1 
1 1 1 1 1 1 1 1 1 
1 1 1 1 1 1 1 1 1 
1 1 1 1 1 1 1 1 1 
1 1 1 1 1 1 1 1 1 
1 1 1 1 1 1 1 1 1 
1 1 1 1 1 1 1 1 1 
1 1 1 1 1 1 1 1 1 
1 1 1 1 1 1 1 1 1 
1 1 1 1 1 1 1 1 1 
1 1 1 1 1 1 1 1 1 
1 1 1 1 1 1 1 1 1 
1 1 1 1 1 1 1 1 1 
1 1 1 1 1 1 1 1 1 
1 1 1 1 1 1 1 1 1 
1 1 1 1 1 1 1 1 1 
1 1 1 1 1 1 1 1 1 
1 1 1 1 1 1 1 1 1 
1 1 1 1 1 1 1 1 1 
1 1 1 1 1 1 1 1 1 
1 1 1 1 1 1 1 1 1 
1 1 1 1 1 1 1 1 1 
1 1 1 1 1 1 1 1 1 
1 1 1 1 1 1 1 1 1 
1 1 1 1 1 1 1 1 1 
1 1 1 1 1 1 1 1 1 
1 1 1 1 1 1 1 1 1 
1 1 1 1 1 1 1 1 1 
1 1 1 1 1 1 1 1 1 
1 1 1 1 1 1 1 1 1 
1 1 1 1 1 1 1 1 1 
1 1 1 1 1 1 1 1 1 
1 1 1 1 1 1 1 1 1 
1 1 1 1 1 1 1 1 1 
1 1 1 1 1 1 1 1 1 
1 1 1 1 1 1 1 1 1 
1 1 1 1 1 1 1 1 1 
1 1 1 1 1 1 1 1 1 
1 1 1 1 1 1 1 1 1 
1 1 1 1 1 1 1 1 1 
1 1 1 1 1 1 1 1 1 
1 1 1 1 1 1 1 1 1 
1 1 1 1 1 1 1 1 1 
1 1 1 1 1 1 1 1 1 
1 1 1 1 1 1 1 1 1 
1 1 1 1 1 1 1 1 1 
1 1 1 1 1 1 1 1 1 
1 1 1 1 1 1 1 1 1 
1 1 1 1 1 1 1 1 1 
1 1 1 1 1 1 1 1 1 
1 1 1 1 1 1 1 1 1 
1 1 1 1 1 1 1 1 1 
1 1 1 1 1 1 1 1 1 
1 1 1 1 1 1 1 1 1 
1 1 1 1 1 1 1 1 1 
1 1 1 1 1 1 1 1 1 
1 1 1 1 1 1 1 1 1 
1 1 1 1 1 1 1 1 1 
1 1 1 1 1 1 1 1 1 
1 1 1 1 1 1 1 1 1 
1 
i 3 1000 int
0 0 0 0 0 0 0 0 0 
0 0 0 0 0 0 0 0 0 
0 0 0 0 0 0 0 0 0 
0 0 0 0 0 0 0 0 0 
0 0 0 0 0 0 0 0 0 
0 0 0 0 0 0 0 0 0 
0 0 0 0 0 0 0 0 0 
0 0 0 0 0 0 0 0 0 
0 0 0 0 0 0 0 0 0 
0 0 0 0 0 0 0 0 0 
0 0 0 0 0 0 0 0 0 
0 0 0 0 0 0 0 0 0 
0 0 0 0 0 0 0 0 0 
0 0 0 0 0 0 0 0 0 
0 0 0 0 0 0 0 0 0 
0 0 0 0 0 0 0 0 0 
0 0 0 0 0 0 0 0 0 
0 0 0 0 0 0 0 0 0 
0 0 0 0 0 0 0 0 0 
0 0 0 0 0 0 0 0 0 
0 0 0 0 0 0 0 0 0 
0 0 0 0 0 0 0 0 0 
0 0 0 0 0 0 0 0 0 
0 0 0 0 0 0 0 0 0 
0 0 0 0 0 0 0 0 0 
0 0 0 0 0 0 0 0 0 
0 0 0 0 0 0 0 0 0 
0 0 0 0 0 0 0 0 0 
0 0 0 0 0 0 0 0 0 
0 0 0 0 0 0 0 0 0 
0 0 0 0 0 0 0 0 0 
0 0 0 0 0 0 0 0 0 
0 0 0 0 0 0 0 0 0 
0 0 0 0 0 0 0 0 0 
0 0 0 0 0 0 0 0 0 
0 0 0 0 0 0 0 0 0 
0 0 0 0 0 0 0 0 0 
0 0 0 0 0 0 0 0 0 
0 0 0 0 0 0 0 0 0 
0 0 0 0 0 0 0 0 0 
0 0 0 0 0 0 0 0 0 
0 0 0 0 0 0 0 0 0 
0 0 0 0 0 0 0 0 0 
0 0 0 0 0 0 0 0 0 
0 0 0 0 0 0 0 0 0 
0 0 0 0 0 0 0 0 0 
0 0 0 0 0 0 0 0 0 
0 0 0 0 0 0 0 0 0 
0 0 0 0 0 0 0 0 0 
0 0 0 0 0 0 0 0 0 
0 0 0 0 0 0 0 0 0 
0 0 0 0 0 0 0 0 0 
0 0 0 0 0 0 0 0 0 
0 0 0 0 0 0 0 0 0 
0 0 0 0 0 0 0 0 0 
0 0 0 0 0 0 0 0 0 
0 0 0 0 0 0 0 0 0 
0 0 0 0 0 0 0 0 0 
0 0 0 0 0 0 0 0 0 
0 0 0 0 0 0 0 0 0 
0 0 0 0 0 0 0 0 0 
0 0 0 0 0 0 0 0 0 
0 0 0 0 0 0 0 0 0 
0 0 0 0 0 0 0 0 0 
0 0 0 0 0 0 0 0 0 
0 0 0 0 0 0 0 0 0 
0 0 0 0 0 0 0 0 0 
0 0 0 0 0 0 0 0 0 
0 0 0 0 0 0 0 0 0 
0 0 0 0 0 0 0 0 0 
0 0 0 0 0 0 0 0 0 
0 0 0 0 0 0 0 0 0 
0 0 0 0 0 0 0 0 0 
0 0 0 0 0 0 0 0 0 
0 0 0 0 0 0 0 0 0 
0 0 0 0 0 0 0 0 0 
0 0 0 0 0 0 0 0 0 
0 0 0 0 0 0 0 0 0 
0 0 0 0 0 0 0 0 0 
0 0 0 0 0 0 0 0 0 
0 0 0 0 0 0 0 0 0 
0 0 0 0 0 0 0 0 0 
0 0 0 0 0 0 0 0 0 
0 0 0 0 0 0 0 0 0 
0 0 0 0 0 0 0 0 0 
0 0 0 0 0 0 0 0 0 
0 0 0 0 0 0 0 0 0 
0 0 0 0 0 0 0 0 0 
0 0 0 0 0 0 0 0 0 
0 0 0 0 0 0 0 0 0 
0 0 0 0 0 0 0 0 0 
0 0 0 0 0 0 0 0 0 
0 0 0 0 0 0 0 0 0 
0 0 0 0 0 0 0 0 0 
0 0 0 0 0 0 0 0 0 
0 0 0 0 0 0 0 0 0 
0 0 0 0 0 0 0 0 0 
0 0 0 0 0 0 0 0 0 
0 0 0 0 0 0 0 0 0 
0 0 0 0 0 0 0 0 0 
0 0 0 0 0 0 0 0 0 
0 0 0 0 0 0 0 0 0 
0 0 0 0 0 0 0 0 0 
0 0 0 0 0 0 0 0 0 
0 0 0 0 0 0 0 0 0 
0 0 0 0 0 0 0 0 0 
0 0 0 0 0 0 0 0 0 
0 0 0 0 0 0 0 0 0 
0 0 0 0 0 0 0 0 0 
0 0 0 0 0 0 0 0 0 
0 0 0 0 0 0 0 0 0 
0 0 0 0 0 0 0 0 0 
0 0 0 0 0 0 0 0 0 
0 0 0 0 0 0 0 0 0 
0 0 0 0 0 0 0 0 0 
0 0 0 0 0 0 0 0 0 
0 0 0 0 0 0 0 0 0 
0 0 0 0 0 0 0 0 0 
0 0 0 0 0 0 0 0 0 
0 0 0 0 0 0 0 0 0 
0 0 0 0 0 0 0 0 0 
0 0 0 0 0 0 0 0 0 
0 0 0 0 0 0 0 0 0 
0 0 0 0 0 0 0 0 0 
0 0 0 0 0 0 0 0 0 
0 0 0 0 0 0 0 0 0 
0 0 0 0 0 0 0 0 0 
0 0 0 0 0 0 0 0 0 
0 0 0 0 0 0 0 0 0 
0 0 0 0 0 0 0 0 0 
0 0 0 0 0 0 0 0 0 
0 0 0 0 0 0 0 0 0 
0 0 0 0 0 0 0 0 0 
0 0 0 0 0 0 0 0 0 
0 0 0 0 0 0 0 0 0 
0 0 0 0 0 0 0 0 0 
0 0 0 0 0 0 0 0 0 
0 0 0 0 0 0 0 0 0 
0 0 0 0 0 0 0 0 0 
0 0 0 0 0 0 0 0 0 
0 0 0 0 0 0 0 0 0 
0 0 0 0 0 0 0 0 0 
0 0 0 0 0 0 0 0 0 
0 0 0 0 0 0 0 0 0 
0 0 0 0 0 0 0 0 0 
0 0 0 0 0 0 0 0 0 
0 0 0 0 0 0 0 0 0 
0 0 0 0 0 0 0 0 0 
0 0 0 0 0 0 0 0 0 
0 0 0 0 0 0 0 0 0 
0 0 0 0 0 0 0 0 0 
0 0 0 0 0 0 0 0 0 
0 0 0 0 0 0 0 0 0 
0 0 0 0 0 0 0 0 0 
0 0 0 0 0 0 0 0 0 
0 0 0 0 0 0 0 0 0 
0 0 0 0 0 0 0 0 0 
0 0 0 0 0 0 0 0 0 
0 0 0 0 0 0 0 0 0 
0 0 0 0 0 0 0 0 0 
0 0 0 0 0 0 0 0 0 
0 0 0 0 0 0 0 0 0 
0 0 0 0 0 0 0 0 0 
0 0 0 0 0 0 0 0 0 
0 0 0 0 0 0 0 0 0 
0 0 0 0 0 0 0 0 0 
0 0 0 0 0 0 0 0 0 
0 0 0 0 0 0 0 0 0 
0 0 0 0 0 0 0 0 0 
0 0 0 0 0 0 0 0 0 
0 0 0 0 0 0 0 0 0 
0 0 0 0 0 0 0 0 0 
0 0 0 0 0 0 0 0 0 
0 0 0 0 0 0 0 0 0 
0 0 0 0 0 0 0 0 0 
0 0 0 0 0 0 0 0 0 
0 0 0 0 0 0 0 0 0 
0 0 0 0 0 0 0 0 0 
0 0 0 0 0 0 0 0 0 
0 0 0 0 0 0 0 0 0 
0 0 0 0 0 0 0 0 0 
0 0 0 0 0 0 0 0 0 
0 0 0 0 0 0 0 0 0 
0 0 0 0 0 0 0 0 0 
0 0 0 0 0 0 0 0 0 
0 0 0 0 0 0 0 0 0 
0 0 0 0 0 0 0 0 0 
0 0 0 0 0 0 0 0 0 
0 0 0 0 0 0 0 0 0 
0 0 0 0 0 0 0 0 0 
0 0 0 0 0 0 0 0 0 
0 0 0 0 0 0 0 0 0 
0 0 0 0 0 0 0 0 0 
0 0 0 0 0 0 0 0 0 
0 0 0 0 0 0 0 0 0 
0 0 0 0 0 0 0 0 0 
0 0 0 0 0 0 0 0 0 
0 0 0 0 0 0 0 0 0 
0 0 0 0 0 0 0 0 0 
0 0 0 0 0 0 0 0 0 
0 0 0 0 0 0 0 0 0 
0 0 0 0 0 0 0 0 0 
0 0 0 0 0 0 0 0 0 
0 0 0 0 0 0 0 0 0 
0 0 0 0 0 0 0 0 0 
0 0 0 0 0 0 0 0 0 
0 0 0 0 0 0 0 0 0 
0 0 0 0 0 0 0 0 0 
0 0 0 0 0 0 0 0 0 
0 0 0 0 0 0 0 0 0 
0 0 0 0 0 0 0 0 0 
0 0 0 0 0 0 0 0 0 
0 0 0 0 0 0 0 0 0 
0 0 0 0 0 0 0 0 0 
0 0 0 0 0 0 0 0 0 
0 0 0 0 0 0 0 0 0 
0 0 0 0 0 0 0 0 0 
0 0 0 0 0 0 0 0 0 
0 0 0 0 0 0 0 0 0 
0 0 0 0 0 0 0 0 0 
0 0 0 0 0 0 0 0 0 
0 0 0 0 0 0 0 0 0 
0 0 0 0 0 0 0 0 0 
0 0 0 0 0 0 0 0 0 
0 0 0 0 0 0 0 0 0 
0 0 0 0 0 0 0 0 0 
0 0 0 0 0 0 0 0 0 
0 0 0 0 0 0 0 0 0 
0 0 0 0 0 0 0 0 0 
0 0 0 0 0 0 0 0 0 
0 0 0 0 0 0 0 0 0 
0 0 0 0 0 0 0 0 0 
0 0 0 0 0 0 0 0 0 
0 0 0 0 0 0 0 0 0 
0 0 0 0 0 0 0 0 0 
0 0 0 0 0 0 0 0 0 
0 0 0 0 0 0 0 0 0 
0 0 0 0 0 0 0 0 0 
0 0 0 0 0 0 0 0 0 
0 0 0 0 0 0 0 0 0 
0 0 0 0 0 0 0 0 0 
0 0 0 0 0 0 0 0 0 
0 0 0 0 0 0 0 0 0 
0 0 0 0 0 0 0 0 0 
0 0 0 0 0 0 0 0 0 
0 0 0 0 0 0 0 0 0 
0 0 0 0 0 0 0 0 0 
0 0 0 0 0 0 0 0 0 
0 0 0 0 0 0 0 0 0 
0 0 0 0 0 0 0 0 0 
0 0 0 0 0 0 0 0 0 
0 0 0 0 0 0 0 0 0 
0 0 0 0 0 0 0 0 0 
0 0 0 0 0 0 0 0 0 
0 0 0 0 0 0 0 0 0 
0 0 0 0 0 0 0 0 0 
0 0 0 0 0 0 0 0 0 
0 0 0 0 0 0 0 0 0 
0 0 0 0 0 0 0 0 0 
0 0 0 0 0 0 0 0 0 
0 0 0 0 0 0 0 0 0 
0 0 0 0 0 0 0 0 0 
0 0 0 0 0 0 0 0 0 
0 0 0 0 0 0 0 0 0 
0 0 0 0 0 0 0 0 0 
0 0 0 0 0 0 0 0 0 
0 0 0 0 0 0 0 0 0 
0 0 0 0 0 0 0 0 0 
0 0 0 0 0 0 0 0 0 
0 0 0 0 0 0 0 0 0 
0 0 0 0 0 0 0 0 0 
0 0 0 0 0 0 0 0 0 
0 0 0 0 0 0 0 0 0 
0 0 0 0 0 0 0 0 0 
0 0 0 0 0 0 0 0 0 
0 0 0 0 0 0 0 0 0 
0 0 0 0 0 0 0 0 0 
0 0 0 0 0 0 0 0 0 
0 0 0 0 0 0 0 0 0 
0 0 0 0 0 0 0 0 0 
0 0 0 0 0 0 0 0 0 
0 0 0 0 0 0 0 0 0 
0 0 0 0 0 0 0 0 0 
0 0 0 0 0 0 0 0 0 
0 0 0 0 0 0 0 0 0 
0 0 0 0 0 0 0 0 0 
0 0 0 0 0 0 0 0 0 
0 0 0 0 0 0 0 0 0 
0 0 0 0 0 0 0 0 0 
0 0 0 0 0 0 0 0 0 
0 0 0 0 0 0 0 0 0 
0 0 0 0 0 0 0 0 0 
0 0 0 0 0 0 0 0 0 
0 0 0 0 0 0 0 0 0 
0 0 0 0 0 0 0 0 0 
0 0 0 0 0 0 0 0 0 
0 0 0 0 0 0 0 0 0 
0 0 0 0 0 0 0 0 0 
0 0 0 0 0 0 0 0 0 
0 0 0 0 0 0 0 0 0 
0 0 0 0 0 0 0 0 0 
0 0 0 0 0 0 0 0 0 
0 0 0 0 0 0 0 0 0 
0 0 0 0 0 0 0 0 0 
0 0 0 0 0 0 0 0 0 
0 0 0 0 0 0 0 0 0 
0 0 0 0 0 0 0 0 0 
0 0 0 0 0 0 0 0 0 
0 0 0 0 0 0 0 0 0 
0 0 0 0 0 0 0 0 0 
0 0 0 0 0 0 0 0 0 
0 0 0 0 0 0 0 0 0 
0 0 0 0 0 0 0 0 0 
0 0 0 0 0 0 0 0 0 
0 0 0 0 0 0 0 0 0 
0 0 0 0 0 0 0 0 0 
0 0 0 0 0 0 0 0 0 
0 0 0 0 0 0 0 0 0 
0 0 0 0 0 0 0 0 0 
0 0 0 0 0 0 0 0 0 
0 0 0 0 0 0 0 0 0 
0 0 0 0 0 0 0 0 0 
0 0 0 0 0 0 0 0 0 
0 0 0 0 0 0 0 0 0 
0 0 0 0 0 0 0 0 0 
0 0 0 0 0 0 0 0 0 
0 0 0 0 0 0 0 0 0 
0 0 0 0 0 0 0 0 0 
0 0 0 0 0 0 0 0 0 
0 0 0 0 0 0 0 0 0 
0 0 0 0 0 0 0 0 0 
0 0 0 0 0 0 0 0 0 
0 0 0 0 0 0 0 0 0 
0 0 0 
v 3 1000 double
0.034531086506 0.44250094161 -0.073301636311 0.035241904481 0.094841987884 -0.057611542317 -0.2638583647 0.27207696074 0.013533435649 
-0.25663830415 0.43102755509 0.0084678049667 0.015904678453 0.011952635743 -0.011314928977 0.0010653028962 0.010410986477 -0.02430914429 
0.0057315049384 0.0082689558519 -0.027676490245 0.012948610825 0.012177592947 0.007396048199 0.012530147094 -0.018682591883 0.0042128540655 
0.0065454971076 -0.0028706822764 -0.0072715719979 0.006202703431 0.0094745076258 -0.017884703505 0.0014224150009 0.0090315999348 -0.025785175302 
0.0021487299278 0.0030723359581 -0.019714841535 0.0057988149185 0.00052739429664 -0.0014717972955 0.0076184437235 -0.0021589589011 -0.022566373854 
0.0037708395192 -0.0044427181587 -0.0078708353659 -0.001271797037 0.0015832333517 -0.015071953894 -0.1334921744 0.049994865161 -0.015508484651 
-0.21205625047 -0.12214513976 0.032789053192 -0.0035847175755 0.017765685746 -0.0084078492443 -0.006627976353 0.0070615829424 -0.02038180394 
0.0061666350257 0.0087735953271 -0.02165880823 0.0043485719256 0.0073088861828 -0.0089363000476 0.0055819329906 0.0053025556087 -0.016902711784 
0.0067588403017 0.0020566779724 -0.014400812819 0.0066025788281 -0.0060768404918 -0.0037228290203 0.0065040714091 -0.0043227438488 -0.010226777563 
-0.00031597168427 -0.0052852573434 -0.0087961850151 -0.0035623011119 0.004305022663 -0.020294042528 -0.002815094976 -0.0071546690211 -0.0073096924563 
-0.0027754355416 -0.024639301425 -0.009463855673 -0.30440662086 0.040097961261 0.0062836947932 0.42839034355 -0.17667179623 0.42542728127 
-0.00078480757044 0.010461297686 -0.0075433386457 0.00021881338352 0.0057068776709 -0.0069729106647 0.0022268597705 0.0076613020864 -0.016319886505 
-0.00077658773746 -0.012677727353 -0.00083396418292 0.0039167886261 -0.0086779007405 -0.0016067765663 -0.00067206152851 -0.0074148616161 -0.0023381122464 
-5.7781866987e-05 0.0030076686829 -0.014556450106 0.0074819887779 -0.0011117008501 -0.010535373161 0.011005362365 -0.015284278661 -0.003822385514 
-0.002129773195 0.01149739588 0.002234393484 -0.004109897026 0.0096882812001 -0.0073856506428 0.0057390147906 -0.0054324217417 -0.006313400649 
0.0010544757899 -0.0073370351462 -0.0073149918059 0.0017266738278 -0.0015895234554 -0.0088727269333 0.0035656660901 -0.00051229285216 -0.0065636082505 
0.008937150927 -0.0031081513437 -0.0021245243881 0.014684469487 -0.0049503303692 0.00096215168028 -0.0032717237141 0.0038169375697 0.0053398610444 
-0.0045174111465 0.0047061552809 0.010331598752 -0.010392684061 0.0093488716002 0.0091989798328 -0.014819112926 0.017306939423 0.0078542714546 
-0.0047080684088 -0.0044006513555 -0.0049510544973 -0.0031523640781 -0.004428860361 -0.0084006001062 0.0042993413383 -0.0015614967785 -0.00038199768784 
0.031379841973 0.010459393655 0.035409788373 0.0085312451177 0.0097607870887 -0.03044191013 -0.032742258036 0.00061240555167 -0.031542813844 
0.0084544331706 0.0051439447775 -0.025672118279 0.0026621167596 0.0093481817026 -0.0074054547121 0.0098440359092 0.011103173334 0.0019476941688 
0.020382879513 -0.017880241943 -0.0048749415949 0.0060633676581 0.0012627501579 -0.018840093478 0.0077647686847 0.0032958173808 -0.016311792349 
0.012669594136 0.0089561584034 0.0087952723916 0.01953786834 -0.0056605745253 -0.012850350733 0.013383615571 -0.002081248533 -0.0013645418996 
0.0052322537625 -0.0053395178187 -0.0025831439921 -0.00025844050331 -0.0032895977822 -0.015239649335 -0.24546634397 -0.041118766109 0.021536569262 
-0.0027883646616 0.0050440329907 -0.011010708214 -0.0039645679167 -1.4691096906e-05 -0.0098864354509 0.0036268608169 0.0038555168149 -0.014861681161 
0.0057094248133 -0.0049070426702 0.005036258839 0.0047456472027 -0.0076915849769 -0.0017826725783 0.0039586265006 -0.0081007114484 -0.0045018067156 
0.002414741762 -0.0071083301095 -0.0074138762173 0.0019122834212 -0.0053167924857 -0.010207876192 -0.0019724858019 7.9504183985e-05 -0.018897459195 
-0.012048296501 -0.0067433053995 -0.015626203736 -0.013014700858 -0.013812101308 0.0089093656272 -0.3848322582 -0.1176502055 -0.027921737546 
-0.00039463857444 0.0041099401374 0.00325346587 -0.0020762509362 -0.00070931296773 -0.004141090808 -0.00074682526497 0.0032056833088 -0.0046933901721 
0.0014570361233 0.0018293041043 -0.0081293709074 0.013962487765 -0.0060670032363 -0.0068931952723 0.0068501718741 -0.0082507648993 -0.0024794940113 
-0.0012612265997 -0.0081443233613 -0.010286695824 -0.0011279615623 -0.0057211157546 -0.008676870299 -0.0016156327493 -0.0061436713526 -0.0086731687393 
0.00034588831981 -0.0073738808004 -0.0075874025061 0.0029507051244 -0.012413151932 -0.0032996936893 0.016420740651 -0.023186257553 -0.011191733413 
-0.0031943581915 0.00072328530744 0.0027494165555 -0.0021699070692 0.0042046825584 0.0010266017334 -0.0020576364516 0.0016749879419 0.0023246116034 
-0.00076601038099 0.0026341604518 -0.0014431332788 -0.0015935273475 -0.00038844044455 0.0028146084156 -0.00041023139848 0.00032814298207 -0.0050567004706 
0.00057664480347 0.0092137362965 -0.0089416646581 -4.6049124087e-05 -0.011493638825 -0.0053392674197 0.0031873778285 -0.0058847262315 -0.0058709053771 
-0.0011778141157 -0.0040936980338 -0.010011067797 -0.00033054570843 -0.012184964566 -0.0059004998218 0.00060056176888 -0.010069069942 -0.00095421572321 
0.0006608730803 -0.011153156885 0.0089057918896 0.0079034216205 -0.011711484021 -0.00098339830314 0.010880917864 -0.0067461027162 0.0038857709323 
-0.0044699956945 0.002071538746 0.0040051609148 -0.0059719060988 0.0055689018404 0.012095804505 -0.0031936087761 -0.0015784513232 0.00013286288733 
-0.002511210358 -0.0062001217865 -0.0064295438298 -0.00095250562991 -0.0045302945223 -0.0091352116038 -0.0033427175392 -0.0017601942417 -0.013953586629 
-0.0035503819265 -0.011209828731 0.01000543968 -0.0022158799271 0.0092480375945 0.0036504085297 -0.0073851567045 0.0028788838537 -0.024341702647 
0.0030934231057 0.0014311018942 -0.010631676582 0.0098247844177 0.0044032514146 -0.0051515381869 0.016703259731 -0.0046539981657 -0.010413983203 
-0.017740914273 -0.0065453505061 0.00093731253002 0.011294236646 -0.013136376135 -0.025857539089 0.0056096262259 0.0020280218105 -0.014756915506 
0.02319102831 -0.0019578034402 -0.012185917597 0.026781849591 -0.027182810292 -0.012720939841 0.0081593105194 -0.0077367268909 -0.00055375357903 
0.0039372071397 -0.0091924296335 -0.0066971610337 0.020322846385 -0.0043783971221 -0.023878015186 0.0064978652793 0.0085535670441 -0.0086827447197 
-0.0037943287201 -0.0072018721797 -0.010351867738 0.0018697397817 -0.007557110672 -0.01084670154 0.0028521356044 -0.0018254965941 -0.0046882822131 
0.0020735852921 -0.0032549492741 -0.0081478334771 0.0010516725399 -0.012862505416 0.0035888228156 0.0072713201833 0.0017260404279 -0.004863802696 
0.0048338274704 -0.0025754234397 -0.001462637865 0.0062845622524 0.011556017028 -0.001090408543 0.010887370321 -0.016256819969 -0.0092039143449 
-0.0033228867894 -0.011380007423 -0.015279644702 -0.00035671525387 0.0010213388675 -0.0049339441328 0.0029213277437 0.00074775464457 -0.0065948133916 
0.0065677768909 -0.003847480998 -0.0096641480007 0.007554505894 -0.0073625198642 -0.01014228277 0.0054995368306 -0.0059235966108 -0.0043885388449 
0.0043749006008 -0.0042171617453 -0.0028160115622 -0.0032796886294 -0.011579302656 -0.0081438170061 -0.0064433955289 -0.011437564716 -0.0070838926434 