# vtk DataFile Version 4.1
Generated by LIGGGHTS
ASCII
DATASET POLYDATA
POINTS 1000 float
-0.0139113 -0.0173753 0.00151218 -0.0114637 -0.0159066 0.00150324 -0.00186747 -0.0167611 0.00149886 
0.000981023 -0.0165715 0.00149712 0.00586223 -0.0160242 0.00151164 -0.0139642 -0.0145236 0.00151626 
-0.000607225 -0.0141995 0.00149814 0.00208298 -0.0132442 0.00150442 0.00493215 -0.0133276 0.00170249 
0.00773012 -0.0138757 0.00153803 0.0164882 -0.0126363 0.00187197 0.0219138 -0.0129016 0.00148666 
-0.0126933 -0.0113401 0.00150314 -0.00602467 -0.0118505 0.00149845 0.00239135 -0.0104225 0.001651 
0.00525162 -0.0104716 0.00149688 0.00811617 -0.0104136 0.00151908 0.0109654 -0.0103521 0.00148276 
0.0135696 -0.0115158 0.00150911 0.0192289 -0.0119207 0.00157271 0.0228679 -0.0103774 0.00241903 
-0.0146082 -0.0092235 0.00150169 -0.011816 -0.00862444 0.00150183 -0.00641332 -0.00758305 0.00147649 
-0.00456263 -0.00955279 0.00235426 -0.000409017 -0.0098776 0.00152103 0.00381624 -0.0079763 0.00159795 
0.00665998 -0.007981 0.00163844 0.00950275 -0.00789415 0.00150303 0.0123123 -0.00790338 0.0020657 
0.0149071 -0.00900792 0.0015089 0.0202516 -0.00930115 0.00195962 0.0253321 -0.00905789 0.00184979 
0.0281315 -0.00946163 0.00149512 0.0321799 -0.00789457 0.00156783 -0.00361697 -0.00698519 0.0015162 
-0.000812333 -0.00711279 0.00207083 0.00798956 -0.00545907 0.00152291 0.0129046 -0.00516973 0.00148759 
0.0155339 -0.00623846 0.00151121 0.0180922 -0.00749473 0.00148507 0.0236665 -0.00674933 0.00183023 
0.027055 -0.00680649 0.00151841 0.0312119 -0.0052136 0.00169063 -0.000929911 -0.00268265 0.00147449 
0.00626616 -0.00317561 0.00150563 0.0111125 -0.00298137 0.00181368 0.0174796 -0.00416459 0.00149534 
0.0201703 -0.00376316 0.00229335 0.0229085 -0.00401604 0.00158588 0.0256899 -0.00435171 0.00206754 
0.0284973 -0.00434007 0.00154661 -0.00496447 -0.000416195 0.00207244 -0.00214085 -0.000270783 0.00240422 
0.00400981 -0.00141726 0.0015218 0.00665213 -0.000344953 0.00149932 0.0139695 -0.000145701 0.00198808 
0.0174944 -0.00131942 0.00147003 0.0225728 -0.00118045 0.00161023 0.034741 -0.00196319 0.00149804 
-0.0131019 -0.0159508 0.00384464 0.00333468 -0.0154964 0.0027023 0.00554253 -0.0173051 0.0040459 
-0.0117836 -0.013544 0.00307144 0.00213443 -0.0135049 0.0043526 0.00628402 -0.0145504 0.00391392 
0.0090533 -0.0128689 0.00384686 0.0145059 -0.0133698 0.00378453 0.000710375 -0.0110809 0.00384985 
0.00394329 -0.0113535 0.00385747 0.00698738 -0.0110307 0.00454559 0.0118353 -0.0123869 0.00358761 
0.0100476 -0.0102152 0.0041718 0.0173496 -0.0100094 0.00260248 0.0181367 -0.0122533 0.00417727 
0.0212328 -0.0120006 0.00409899 0.0243641 -0.0118187 0.00439163 0.0306485 -0.0100048 0.00273072 
-0.00549759 -0.00755722 0.00417753 -0.00270303 -0.00812421 0.00395923 0.00254196 -0.00887015 0.00403643 
0.0134932 -0.00909331 0.00437252 0.0159867 -0.00781037 0.00386152 0.0188131 -0.00810249 0.00416202 
0.0214142 -0.00918903 0.00456186 0.0242528 -0.00897068 0.00448787 0.0270741 -0.00903896 0.00411129 
-0.00747975 -0.00568915 0.00329659 -0.0003901 -0.0067586 0.00488761 -0.00244426 -0.00530976 0.00352669 
0.00277536 -0.00607667 0.00344327 0.00588438 -0.00688217 0.00415811 0.0135715 -0.00626629 0.00404313 
0.0191743 -0.00527198 0.00450032 0.0210772 -0.00680597 0.00301923 0.024317 -0.00611967 0.00454295 
0.0271665 -0.00619082 0.00429809 0.0296099 -0.0073471 0.00268789 0.0319667 -0.00656313 0.00408733 
-0.00593782 -0.00340479 0.00405595 -0.00348824 -0.00277304 0.00272877 -0.00111449 -0.00253135 0.00429978 
0.000313493 -0.00468357 0.00307089 0.00171029 -0.00273461 0.00460831 0.00415834 -0.00356328 0.00339786 
0.00859932 -0.00317097 0.00312811 0.0131793 -0.00343495 0.00372155 0.0158038 -0.00451626 0.00378007 
0.0180161 -0.00272294 0.00388953 0.0211935 -0.00330084 0.00491717 0.0239523 -0.00332045 0.00413744 
0.0267238 -0.00266367 0.00411456 0.0296792 -0.00485192 0.00408199 0.0305223 -0.00258409 0.00253911 
-0.00752929 -0.00157278 0.00255243 0.000625929 -0.000747023 0.00288186 0.00627792 -0.00172798 0.00396053 
0.0132145 -0.000211964 0.00474861 0.0165438 -0.000253363 0.00391189 0.019989 -0.000967545 0.00280264 
0.0286435 -0.000662029 0.00347485 0.0324138 -0.00119026 0.00417311 0.00402111 -0.0153457 0.0054628 
0.00524515 -0.0128107 0.00592828 0.00805652 -0.0142303 0.00614035 0.0108393 -0.0136155 0.00596262 
-0.00297912 -0.0103637 0.00733322 -0.000395859 -0.0122433 0.00621147 0.00230838 -0.0113304 0.00619421 
0.010532 -0.01094 0.00687266 0.0132722 -0.0121271 0.00603791 0.0173881 -0.0123607 0.00692004 
0.0196535 -0.0108079 0.00614068 0.024323 -0.0104555 0.00690876 -0.0441703 -0.0109711 0.00644287 
-0.00522882 -0.00761838 0.00702368 -0.000853104 -0.00948656 0.00563532 -0.00237461 -0.00758459 0.00711033 
0.00161907 -0.00862624 0.00674578 0.00497321 -0.00924128 0.00548487 0.00890558 -0.00783244 0.00528251 
0.0115174 -0.00832992 0.00628801 0.0149899 -0.00844158 0.00670766 0.0170415 -0.00994455 0.0054319 
0.0217486 -0.00933292 0.00739938 0.0244339 -0.00758955 0.00698674 -0.00443571 -0.00530298 0.00556265 
0.00158967 -0.00577706 0.00670593 0.00420592 -0.00518308 0.00573764 0.00647921 -0.00644963 0.00690409 
0.00924024 -0.00604469 0.00749375 0.0114581 -0.00550363 0.00580071 0.0216783 -0.00601429 0.00567262 
0.0272043 -0.00683333 0.00708123 -0.00842 -0.00435487 0.00561962 -0.0060624 -0.00338517 0.00691406 
-0.00367394 -0.00256022 0.00556898 -0.0017394 -0.00457846 0.00618044 0.00318472 -0.00285846 0.0070492 
0.00682944 -0.00432386 0.00504096 0.00943287 -0.0034771 0.00585244 0.0124909 -0.0029123 0.00641953 
0.0145741 -0.00486082 0.00632189 0.0191428 -0.00367994 0.00687831 0.0232199 -0.00392397 0.00683176 
0.0259376 -0.00444849 0.00619543 0.0287286 -0.00441471 0.00674135 -0.0102285 -0.000456589 0.00681935 
-0.00769336 -0.00160962 0.00539846 3.65002e-05 -0.00246216 0.00691074 0.00655188 -0.000255494 0.00637716 
0.0151132 -0.00221088 0.00542422 0.0176619 -0.00130551 0.00633574 0.0225456 -0.00120261 0.00628767 
0.0271285 -0.00210777 0.00729333 0.0300527 -0.00231606 0.00533251 0.00353032 -0.0129491 0.00820432 
0.00607156 -0.014045 0.00887956 0.00883319 -0.0147684 0.0088455 0.0110705 -0.0129931 0.00875118 
0.00297029 -0.0101972 0.00872448 0.00543952 -0.0113508 0.00959806 0.00737595 -0.0118688 0.00757537 
0.0117685 -0.010264 0.00934989 0.016641 -0.0107818 0.00916904 0.0210451 -0.0119411 0.00835154 
-0.00448941 -0.00905746 0.00937578 5.64586e-05 -0.00901944 0.00910616 0.00607635 -0.00882509 0.0084386 
0.0095519 -0.00873428 0.00834808 0.0130085 -0.00778587 0.0086518 0.0157566 -0.00787926 0.00940084 
0.0192719 -0.0097228 0.00875054 -0.007293 -0.00579923 0.00780537 -0.00315053 -0.00654931 0.00965031 
-0.000631611 -0.00580717 0.00850168 0.00385796 -0.0071771 0.0077442 0.00643273 -0.00589469 0.0096811 
0.0198806 -0.0071891 0.00756323 0.0224051 -0.00615982 0.00842057 -0.00964994 -0.00497269 0.00918627 
-0.00866578 -0.00263695 0.00787171 -0.00711398 -0.00388507 0.00992006 -0.00380447 -0.00399187 0.00855395 
-0.000584907 -0.00280711 0.00967161 0.00355575 -0.00351343 0.00980921 0.00739778 -0.00391562 0.00782156 
0.0101285 -0.00357346 0.00862149 0.0124884 -0.0026201 0.0099614 0.0125965 -0.00498345 0.00837277 
0.016546 -0.00329324 0.00804735 0.0187305 -0.00266029 0.00976955 0.0255698 -0.00381252 0.00896883 
-0.0104605 -0.00121011 0.00956406 -0.00516962 -0.00147662 0.00883305 -0.0024677 -0.0015503 0.00794082 
0.00104236 -0.000614287 0.00884741 0.00548019 -0.00190478 0.00844641 0.0143118 -0.00150381 0.00807508 
0.0168677 -0.000634892 0.00900418 0.0201164 -0.00114713 0.00778863 0.0245952 -0.00122601 0.00827587 
0.0298408 -0.00220768 0.00818024 0.00415332 -0.0135233 0.0109319 0.00817213 -0.0106075 0.0100066 
0.01431 -0.0100059 0.010636 0.000774215 -0.00937173 0.011845 0.00241026 -0.00777764 0.0101284 
0.00775334 -0.00799717 0.0110835 0.0108234 -0.0079655 0.0107749 0.0131675 -0.008073 0.0124025 
0.0177858 -0.00900222 0.011073 0.0217225 -0.00988401 0.0102004 -0.00071788 -0.00707067 0.0110543 
0.00214803 -0.00576723 0.0121362 0.00919284 -0.00564705 0.0103305 0.0140169 -0.00599267 0.0106394 
0.0165924 -0.00651638 0.0117678 0.0189979 -0.0065629 0.0102119 0.0230817 -0.00746753 0.010869 
-0.00312274 -0.00423483 0.0113197 -0.000358917 -0.00440676 0.0120199 0.00488169 -0.00497685 0.0118734 
0.00730526 -0.00361108 0.0111386 0.010112 -0.00318572 0.0114469 0.0173848 -0.00379284 0.0120165 
0.0153206 -0.00251377 0.0105199 0.0207389 -0.0048314 0.0116763 0.0233834 -0.0046402 0.0106131 
0.00156248 -0.00235911 0.0114943 0.00496255 -0.00213876 0.0118833 0.00742906 -0.00077341 0.0115332 
0.0215397 -0.0024814 0.0102668 0.00995064 -0.000228837 0.0135588 0.0122267 -0.00171109 0.0126632 
-0.00953431 0.000173832 0.00152254 -0.00758113 0.00207571 0.00236871 -0.0035861 0.00201809 0.00149411 
0.0163913 0.00130905 0.00153039 0.0215069 0.00138798 0.00225427 0.0327795 0.00010713 0.0016526 
0.0355512 0.000771107 0.00165254 -0.0101537 0.00295421 0.00148615 -0.00565228 0.0039922 0.0014845 
0.0160426 0.00405321 0.00224821 0.0249162 0.0031217 0.00149675 0.0273376 0.0042703 0.00247469 
0.0336114 0.00276009 0.00231664 -0.0119819 0.00730328 0.00198699 -0.00637603 0.00677585 0.0015407 
0.000321609 0.00604423 0.00152127 0.0113348 0.00691128 0.00149583 0.0182499 0.00570369 0.00150921 
0.0281058 0.00700696 0.00224495 0.0308566 0.00624956 0.00229966 0.0345016 0.00541742 0.00174925 
-0.00374958 0.00993592 0.00221679 0.00114472 0.00877376 0.00152392 0.00889076 0.00849088 0.00149502 
0.011409 0.00975944 0.00158431 0.0264201 0.00995226 0.00157777 0.0331323 0.00792076 0.00190191 
-0.012065 0.0101603 0.00204227 -0.0098882 0.0119418 0.00149743 -0.00715588 0.0113977 0.00217004 
-0.00106097 0.010587 0.00146732 0.00349591 0.0102335 0.00220388 0.00620238 0.0109803 0.00155357 
0.00904918 0.0113619 0.00160654 0.0139331 0.0110338 0.00191108 0.0191844 0.0118507 0.00197095 
0.0240269 0.0114348 0.00199196 0.0292532 0.0102997 0.00146279 0.0310756 0.0124228 0.00187754 
-0.0115523 0.014141 0.00226374 -0.00884014 0.014604 0.00149507 0.0041698 0.0129616 0.00185929 
[...]
POINT_DATA 1000
FIELD FieldData 7
id 1 1000 int
40 83 10 41 49 23 24 266 25 
280 297 3 124 18 263 22 12 290 
285 53 27 197 79 302 36 282 268 
251 277 295 37 48 21 9 141 17 
2 16 50 30 46 15 39 247 43 
104 38 33 7 19 274 309 191 107 
235 6 378 138 164 248 51 254 1 
29 252 52 262 504 298 256 535 301 
520 56 296 272 216 32 270 58 306 
258 13 45 294 264 260 259 253 28 
287 278 31 273 4 281 305 34 65 
304 205 54 47 303 308 44 8 5 
42 289 261 527 292 279 291 11 35 
434 67 14 554 689 26 267 551 558 
761 509 531 555 544 543 501 533 351 
549 524 525 508 548 552 526 518 257 
521 503 293 534 283 528 532 286 284 
767 507 506 276 255 510 265 275 300 
269 556 307 530 788 804 529 536 158 
299 288 547 807 511 515 810 773 766 
769 787 789 774 782 751 768 765 776 
755 516 797 546 502 757 522 540 542 
538 512 784 519 794 523 505 764 545 
539 557 517 513 790 752 792 806 541 
648 537 271 550 514 809 801 775 805 
802 781 796 808 777 795 786 803 778 
798 553 758 791 800 763 759 753 762 
783 793 780 754 772 785 779 756 799 
770 57 760 193 339 102 55 186 136 
160 357 199 161 131 242 218 363 89 
429 112 331 384 425 234 237 69 63 
206 130 433 455 227 229 118 243 123 
116 211 238 157 149 169 223 175 204 
84 62 155 203 165 80 178 194 183 
472 154 249 179 222 90 127 310 120 
87 332 208 117 226 86 182 110 64 
430 105 159 407 404 75 231 399 174 
484 367 740 184 77 60 103 195 219 
168 98 236 360 151 121 177 143 239 
156 487 431 392 496 190 139 749 401 
111 114 233 91 20 416 397 323 113 
389 482 72 66 685 393 214 499 209 
68 344 413 202 330 328 380 724 96 
232 359 423 94 212 314 445 119 460 
419 313 101 85 122 73 213 189 333 
147 99 92 317 128 210 246 145 220 
241 180 352 448 142 185 78 88 198 
150 61 100 408 166 428 415 490 93 
311 163 240 462 492 570 346 427 471 
387 146 59 221 115 201 385 465 483 
394 391 82 126 245 196 109 106 412 
495 379 347 435 140 436 167 97 364 
376 366 315 464 491 188 341 451 437 
422 463 418 402 390 447 349 170 162 
225 176 439 224 153 334 76 388 81 
148 459 125 603 329 640 565 370 320 
95 134 192 207 200 679 709 457 369 
675 132 477 383 596 688 698 449 486 
468 382 129 655 642 632 678 732 365 
673 900 666 629 452 450 454 338 362 
730 680 563 335 398 727 912 438 173 
172 135 355 250 358 625 475 626 707 
498 152 70 466 470 396 456 561 343 
476 340 350 692 473 215 405 181 342 
622 598 494 74 480 137 244 368 373 
461 646 411 377 714 337 420 348 230 
371 386 674 409 406 414 481 474 594 
395 336 444 741 467 319 575 400 722 
620 322 728 590 560 171 581 702 479 
318 485 750 618 432 356 668 500 615 
592 616 71 564 623 442 879 898 228 
426 381 372 638 458 922 326 353 735 
325 571 567 613 577 945 663 652 441 
573 572 876 974 601 695 469 927 981 
992 967 862 703 417 440 747 645 915 
701 566 847 890 936 744 579 670 569 
593 738 930 589 979 316 656 903 611 
591 726 664 607 453 493 619 718 653 
410 658 609 446 870 606 354 217 108 
403 489 682 654 745 650 955 715 562 
361 421 497 488 617 599 610 624 700 
424 710 723 568 634 748 321 977 614 
327 312 578 828 660 733 739 585 588 
743 996 933 375 672 691 697 816 586 
600 587 621 595 665 597 576 643 651 
644 604 559 818 868 712 716 602 628 
639 662 720 988 734 608 999 708 925 
746 989 631 686 681 848 690 635 811 
696 641 729 693 699 860 853 906 919 
612 574 932 909 704 877 929 958 771 
959 896 649 717 961 886 921 984 971 
835 647 633 711 659 731 817 869 840 
837 942 964 882 814 627 684 843 705 
582 935 871 895 856 855 669 637 924 
812 917 953 657 859 683 584 374 671 
345 736 630 914 580 842 954 823 867 
719 742 324 908 815 824 897 902 976 
583 957 713 938 949 478 881 963 836 
721 948 968 826 905 844 694 676 636 
667 834 737 970 857 918 838 725 845 
993 852 889 893 880 944 822 947 987 
865 965 875 687 885 854 829 819 661 
940 952 980 986 827 830 858 978 874 
878 962 821 913 133 861 946 850 939 
928 907 841 997 825 916 941 833 901 
926 144 891 931 911 937 985 990 975 
849 998 910 813 863 943 888 873 883 
677 866 951 872 969 983 920 706 605 
950 851 846 934 894 1000 960 884 982 
995 956 966 904 973 923 994 831 899 
972 887 820 832 187 991 892 839 443 
864 
type 1 1000 int
1 1 1 1 1 1 1 1 1 
1 1 1 1 1 1 1 1 1 
1 1 1 1 1 1 1 1 1 
1 1 1 1 1 1 1 1 1 
1 1 1 1 1 1 1 1 1 
1 1 1 1 1 1 1 1 1 
1 1 1 1 1 1 1 1 1 
1 1 1 1 1 1 1 1 1 
1 1 1 1 1 1 1 1 1 
1 1 1 1 1 1 1 1 1 
1 1 1 1 1 1 1 1 1 
1 1 1 1 1 1 1 1 1 
1 1 1 1 1 1 1 1 1 
1 1 1 1 1 1 1 1 1 
1 1 1 1 1 1 1 1 1 
1 1 1 1 1 1 1 1 1 
1 1 1 1 1 1 1 1 1 
1 1 1 1 1 1 1 1 1 
1 1 1 1 1 1 1 1 1 
1 1 1 1 1 1 1 1 1 
1 1 1 1 1 1 1 1 1 
1 1 1 1 1 1 1 1 1 
1 1 1 1 1 1 1 1 1 
1 1 1 1 1 1 1 1 1 
1 1 1 1 1 1 1 1 1 
1 1 1 1 1 1 1 1 1 
1 1 1 1 1 1 1 1 1 
1 1 1 1 1 1 1 1 1 
1 1 1 1 1 1 1 1 1 
1 1 1 1 1 1 1 1 1 
1 1 1 1 1 1 1 1 1 
1 1 1 1 1 1 1 1 1 
1 1 1 1 1 1 1 1 1 
1 1 1 1 1 1 1 1 1 
1 1 1 1 1 1 1 1 1 
1 1 1 1 1 1 1 1 1 
1 1 1 1 1 1 1 1 1 
1 1 1 1 1 1 1 1 1 
1 1 1 1 1 1 1 1 1 
1 1 1 1 1 1 1 1 1 
1 1 1 1 1 1 1 1 1 
1 1 1 1 1 1 1 1 1 
1 1 1 1 1 1 1 1 1 
1 1 1 1 1 1 1 1 1 
1 1 1 1 1 1 1 1 1 
1 1 1 1 1 1 1 1 1 
1 1 1 1 1 1 1 1 1 
1 1 1 1 1 1 1 1 1 
1 1 1 1 1 1 1 1 1 
1 1 1 1 1 1 1 1 1 
1 1 1 1 1 1 1 1 1 
1 1 1 1 1 1 1 1 1 
1 1 1 1 1 1 1 1 1 
1 1 1 1 1 1 1 1 1 
1 1 1 1 1 1 1 1 1 
1 1 1 1 1 1 1 1 1 
1 1 1 1 1 1 1 1 1 
1 1 1 1 1 1 1 1 1 
1 1 1 1 1 1 1 1 1 
1 1 1 1 1 1 1 1 1 
1 1 1 1 1 1 1 1 1 
1 1 1 1 1 1 1 1 1 
1 1 1 1 1 1 1 1 1 
1 1 1 1 1 1 1 1 1 
1 1 1 1 1 1 1 1 1 
1 1 1 1 1 1 1 1 1 
1 1 1 1 1 1 1 1 1 
1 1 1 1 1 1 1 1 1 
1 1 1 1 1 1 1 1 1 
1 1 1 1 1 1 1 1 1 
1 1 1 1 1 1 1 1 1 
1 1 1 1 1 1 1 1 1 
1 1 1 1 1 1 1 1 1 
1 1 1 1 1 1 1 1 1 
1 1 1 1 1 1 1 1 1 
1 1 1 1 1 1 1 1 1 
1 1 1 1 1 1 1 1 1 
1 1 1 1 1 1 1 1 1 
1 1 1 1 1 1 1 1 1 
1 1 1 1 1 1 1 1 1 
1 1 1 1 1 1 1 1 1 
1 1 1 1 1 1 1 1 1 
1 1 1 1 1 1 1 1 1 
1 1 1 1 1 1 1 1 1 
1 1 1 1 1 1 1 1 1 
1 1 1 1 1 1 1 1 1 
1 1 1 1 1 1 1 1 1 
1 1 1 1 1 1 1 1 1 
1 1 1 1 1 1 1 1 1 
1 1 1 1 1 1 1 1 1 
1 1 1 1 1 1 1 1 1 
1 1 1 1 1 1 1 1 1 
1 1 1 1 1 1 1 1 1 
1 1 1 1 1 1 1 1 1 
1 1 1 1 1 1 1 1 1 
1 1 1 1 1 1 1 1 1 
1 1 1 1 1 1 1 1 1 
1 1 1 1 1 1 1 1 1 
1 1 1 1 1 1 1 1 1 
1 1 1 1 1 1 1 1 1 
1 1 1 1 1 1 1 1 1 
1 1 1 1 1 1 1 1 1 
1 1 1 1 1 1 1 1 1 
1 1 1 1 1 1 1 1 1 
1 1 1 1 1 1 1 1 1 
1 1 1 1 1 1 1 1 1 
1 1 1 1 1 1 1 1 1 
1 1 1 1 1 1 1 1 1 
1 1 1 1 1 1 1 1 1 
1 1 1 1 1 1 1 1 1 
1 1 1 1 1 1 1 1 1 
1 
i 3 1000 int
0 0 0 0 0 0 0 0 0 
0 0 0 0 0 0 0 0 0 
0 0 0 0 0 0 0 0 0 
0 0 0 0 0 0 0 0 0 
0 0 0 0 0 0 0 0 0 
0 0 0 0 0 0 0 0 0 
0 0 0 0 0 0 0 0 0 
0 0 0 0 0 0 0 0 0 
0 0 0 0 0 0 0 0 0 
0 0 0 0 0 0 0 0 0 
0 0 0 0 0 0 0 0 0 
0 0 0 0 0 0 0 0 0 
0 0 0 0 0 0 0 0 0 
0 0 0 0 0 0 0 0 0 
0 0 0 0 0 0 0 0 0 
0 0 0 0 0 0 0 0 0 
0 0 0 0 0 0 0 0 0 
0 0 0 0 0 0 0 0 0 
0 0 0 0 0 0 0 0 0 
0 0 0 0 0 0 0 0 0 
0 0 0 0 0 0 0 0 0 
0 0 0 0 0 0 0 0 0 
0 0 0 0 0 0 0 0 0 
0 0 0 0 0 0 0 0 0 
0 0 0 0 0 0 0 0 0 
0 0 0 0 0 0 0 0 0 
0 0 0 0 0 0 0 0 0 
0 0 0 0 0 0 0 0 0 
0 0 0 0 0 0 0 0 0 
0 0 0 0 0 0 0 0 0 
0 0 0 0 0 0 0 0 0 
0 0 0 0 0 0 0 0 0 
0 0 0 0 0 0 0 0 0 
0 0 0 0 0 0 0 0 0 
0 0 0 0 0 0 0 0 0 
0 0 0 0 0 0 0 0 0 
0 0 0 0 0 0 0 0 0 
0 0 0 0 0 0 0 0 0 
0 0 0 0 0 0 0 0 0 
0 0 0 0 0 0 0 0 0 
0 0 0 0 0 0 0 0 0 
0 0 0 0 0 0 0 0 0 
0 0 0 0 0 0 0 0 0 
0 0 0 0 0 0 0 0 0 
0 0 0 0 0 0 0 0 0 
0 0 0 0 0 0 0 0 0 
0 0 0 0 0 0 0 0 0 
0 0 0 0 0 0 0 0 0 
0 0 0 0 0 0 0 0 0 
0 0 0 0 0 0 0 0 0 
0 0 0 0 0 0 0 0 0 
0 0 0 0 0 0 0 0 0 
0 0 0 0 0 0 0 0 0 
0 0 0 0 0 0 0 0 0 
0 0 0 0 0 0 0 0 0 
0 0 0 0 0 0 0 0 0 
0 0 0 0 0 0 0 0 0 
0 0 0 0 0 0 0 0 0 
0 0 0 0 0 0 0 0 0 
0 0 0 0 0 0 0 0 0 
0 0 0 0 0 0 0 0 0 
0 0 0 0 0 0 0 0 0 
0 0 0 0 0 0 0 0 0 
0 0 0 0 0 0 0 0 0 
0 0 0 0 0 0 0 0 0 
0 0 0 0 0 0 0 0 0 
0 0 0 0 0 0 0 0 0 
0 0 0 0 0 0 0 0 0 
0 0 0 0 0 0 0 0 0 
0 0 0 0 0 0 0 0 0 
0 0 0 0 0 0 0 0 0 
0 0 0 0 0 0 0 0 0 
0 0 0 0 0 0 0 0 0 
0 0 0 0 0 0 0 0 0 
0 0 0 0 0 0 0 0 0 
0 0 0 0 0 0 0 0 0 
0 0 0 0 0 0 0 0 0 
0 0 0 0 0 0 0 0 0 
0 0 0 0 0 0 0 0 0 
0 0 0 0 0 0 0 0 0 
0 0 0 0 0 0 0 0 0 
0 0 0 0 0 0 0 0 0 
0 0 0 0 0 0 0 0 0 
0 0 0 0 0 0 0 0 0 
0 0 0 0 0 0 0 0 0 
0 0 0 0 0 0 0 0 0 
0 0 0 0 0 0 0 0 0 
0 0 0 0 0 0 0 0 0 
0 0 0 0 0 0 0 0 0 
0 0 0 0 0 0 0 0 0 
0 0 0 0 0 0 0 0 0 
0 0 0 0 0 0 0 0 0 
0 0 0 0 0 0 0 0 0 
0 0 0 0 0 0 0 0 0 
0 0 0 0 0 0 0 0 0 
0 0 0 0 0 0 0 0 0 
0 0 0 0 0 0 0 0 0 
0 0 0 0 0 0 0 0 0 
0 0 0 0 0 0 0 0 0 
0 0 0 0 0 0 0 0 0 
0 0 0 0 0 0 0 0 0 
0 0 0 0 0 0 0 0 0 
0 0 0 0 0 0 0 0 0 
0 0 0 0 0 0 0 0 0 
0 0 0 0 0 0 0 0 0 
0 0 0 0 0 0 0 0 0 
0 0 0 0 0 0 0 0 0 
0 0 0 0 0 0 0 0 0 
0 0 0 0 0 0 0 0 0 
0 0 0 0 0 0 0 0 0 
0 0 0 0 0 0 0 0 0 
0 0 0 0 0 0 0 0 0 
0 0 0 0 0 0 0 0 0 
0 0 0 0 0 0 0 0 0 
0 0 0 0 0 0 0 0 0 
0 0 0 0 0 0 0 0 0 
0 0 0 0 0 0 0 0 0 
0 0 0 0 0 0 0 0 0 
0 0 0 0 0 0 0 0 0 
0 0 0 0 0 0 0 0 0 
0 0 0 0 0 0 0 0 0 
0 0 0 0 0 0 0 0 0 
0 0 0 0 0 0 0 0 0 
0 0 0 0 0 0 0 0 0 
0 0 0 0 0 0 0 0 0 
0 0 0 0 0 0 0 0 0 
0 0 0 0 0 0 0 0 0 
0 0 0 0 0 0 0 0 0 
0 0 0 0 0 0 0 0 0 
0 0 0 0 0 0 0 0 0 
0 0 0 0 0 0 0 0 0 
0 0 0 0 0 0 0 0 0 
0 0 0 0 0 0 0 0 0 
0 0 0 0 0 0 0 0 0 
0 0 0 0 0 0 0 0 0 
0 0 0 0 0 0 0 0 0 
0 0 0 0 0 0 0 0 0 
0 0 0 0 0 0 0 0 0 
0 0 0 0 0 0 0 0 0 
0 0 0 0 0 0 0 0 0 
0 0 0 0 0 0 0 0 0 
0 0 0 0 0 0 0 0 0 
0 0 0 0 0 0 0 0 0 
0 0 0 0 0 0 0 0 0 
0 0 0 0 0 0 0 0 0 
0 0 0 0 0 0 0 0 0 
0 0 0 0 0 0 0 0 0 
0 0 0 0 0 0 0 0 0 
0 0 0 0 0 0 0 0 0 
0 0 0 0 0 0 0 0 0 
0 0 0 0 0 0 0 0 0 
0 0 0 0 0 0 0 0 0 
0 0 0 0 0 0 0 0 0 
0 0 0 0 0 0 0 0 0 
0 0 0 0 0 0 0 0 0 
0 0 0 0 0 0 0 0 0 
0 0 0 0 0 0 0 0 0 
0 0 0 0 0 0 0 0 0 
0 0 0 0 0 0 0 0 0 
0 0 0 0 0 0 0 0 0 
0 0 0 0 0 0 0 0 0 
0 0 0 0 0 0 0 0 0 
0 0 0 0 0 0 0 0 0 
0 0 0 0 0 0 0 0 0 
0 0 0 0 0 0 0 0 0 
0 0 0 0 0 0 0 0 0 
0 0 0 0 0 0 0 0 0 
0 0 0 0 0 0 0 0 0 
0 0 0 0 0 0 0 0 0 
0 0 0 0 0 0 0 0 0 
0 0 0 0 0 0 0 0 0 
0 0 0 0 0 0 0 0 0 
0 0 0 0 0 0 0 0 0 
0 0 0 0 0 0 0 0 0 
0 0 0 0 0 0 0 0 0 
0 0 0 0 0 0 0 0 0 
0 0 0 0 0 0 0 0 0 
0 0 0 0 0 0 0 0 0 
0 0 0 0 0 0 0 0 0 
0 0 0 0 0 0 0 0 0 
0 0 0 0 0 0 0 0 0 
0 0 0 0 0 0 0 0 0 
0 0 0 0 0 0 0 0 0 
0 0 0 0 0 0 0 0 0 
0 0 0 0 0 0 0 0 0 
0 0 0 0 0 0 0 0 0 
0 0 0 0 0 0 0 0 0 
0 0 0 0 0 0 0 0 0 
0 0 0 0 0 0 0 0 0 
0 0 0 0 0 0 0 0 0 
0 0 0 0 0 0 0 0 0 
0 0 0 0 0 0 0 0 0 
0 0 0 0 0 0 0 0 0 
0 0 0 0 0 0 0 0 0 
0 0 0 0 0 0 0 0 0 
0 0 0 0 0 0 0 0 0 
0 0 0 0 0 0 0 0 0 
0 0 0 0 0 0 0 0 0 
0 0 0 0 0 0 0 0 0 
0 0 0 0 0 0 0 0 0 
0 0 0 0 0 0 0 0 0 
0 0 0 0 0 0 0 0 0 
0 0 0 0 0 0 0 0 0 
0 0 0 0 0 0 0 0 0 
0 0 0 0 0 0 0 0 0 
0 0 0 0 0 0 0 0 0 
0 0 0 0 0 0 0 0 0 
0 0 0 0 0 0 0 0 0 
0 0 0 0 0 0 0 0 0 
0 0 0 0 0 0 0 0 0 
0 0 0 0 0 0 0 0 0 
0 0 0 0 0 0 0 0 0 
0 0 0 0 0 0 0 0 0 
0 0 0 0 0 0 0 0 0 
0 0 0 0 0 0 0 0 0 
0 0 0 0 0 0 0 0 0 
0 0 0 0 0 0 0 0 0 
0 0 0 0 0 0 0 0 0 
0 0 0 0 0 0 0 0 0 
0 0 0 0 0 0 0 0 0 
0 0 0 0 0 0 0 0 0 
0 0 0 0 0 0 0 0 0 
0 0 0 0 0 0 0 0 0 
0 0 0 0 0 0 0 0 0 
0 0 0 0 0 0 0 0 0 
0 0 0 0 0 0 0 0 0 
0 0 0 0 0 0 0 0 0 
0 0 0 0 0 0 0 0 0 
0 0 0 0 0 0 0 0 0 
0 0 0 0 0 0 0 0 0 
0 0 0 0 0 0 0 0 0 
0 0 0 0 0 0 0 0 0 
0 0 0 0 0 0 0 0 0 
0 0 0 0 0 0 0 0 0 
0 0 0 0 0 0 0 0 0 
0 0 0 0 0 0 0 0 0 
0 0 0 0 0 0 0 0 0 
0 0 0 0 0 0 0 0 0 
0 0 0 0 0 0 0 0 0 
0 0 0 0 0 0 0 0 0 
0 0 0 0 0 0 0 0 0 
0 0 0 0 0 0 0 0 0 
0 0 0 0 0 0 0 0 0 
0 0 0 0 0 0 0 0 0 
0 0 0 0 0 0 0 0 0 
0 0 0 0 0 0 0 0 0 
0 0 0 0 0 0 0 0 0 
0 0 0 0 0 0 0 0 0 
0 0 0 0 0 0 0 0 0 
0 0 0 0 0 0 0 0 0 
0 0 0 0 0 0 0 0 0 
0 0 0 0 0 0 0 0 0 
0 0 0 0 0 0 0 0 0 
0 0 0 0 0 0 0 0 0 
0 0 0 0 0 0 0 0 0 
0 0 0 0 0 0 0 0 0 
0 0 0 0 0 0 0 0 0 
0 0 0 0 0 0 0 0 0 
0 0 0 0 0 0 0 0 0 
0 0 0 0 0 0 0 0 0 
0 0 0 0 0 0 0 0 0 
0 0 0 0 0 0 0 0 0 
0 0 0 0 0 0 0 0 0 
0 0 0 0 0 0 0 0 0 
0 0 0 0 0 0 0 0 0 
0 0 0 0 0 0 0 0 0 
0 0 0 0 0 0 0 0 0 
0 0 0 0 0 0 0 0 0 
0 0 0 0 0 0 0 0 0 
0 0 0 0 0 0 0 0 0 
0 0 0 0 0 0 0 0 0 
0 0 0 0 0 0 0 0 0 
0 0 0 0 0 0 0 0 0 
0 0 0 0 0 0 0 0 0 
0 0 0 0 0 0 0 0 0 
0 0 0 0 0 0 0 0 0 
0 0 0 0 0 0 0 0 0 
0 0 0 0 0 0 0 0 0 
0 0 0 0 0 0 0 0 0 
0 0 0 0 0 0 0 0 0 
0 0 0 0 0 0 0 0 0 
0 0 0 0 0 0 0 0 0 
0 0 0 0 0 0 0 0 0 
0 0 0 0 0 0 0 0 0 
0 0 0 0 0 0 0 0 0 
0 0 0 0 0 0 0 0 0 
0 0 0 0 0 0 0 0 0 
0 0 0 0 0 0 0 0 0 
0 0 0 0 0 0 0 0 0 
0 0 0 0 0 0 0 0 0 
0 0 0 0 0 0 0 0 0 
0 0 0 0 0 0 0 0 0 
0 0 0 0 0 0 0 0 0 
0 0 0 0 0 0 0 0 0 
0 0 0 0 0 0 0 0 0 
0 0 0 0 0 0 0 0 0 
0 0 0 0 0 0 0 0 0 
0 0 0 0 0 0 0 0 0 
0 0 0 0 0 0 0 0 0 
0 0 0 0 0 0 0 0 0 
0 0 0 0 0 0 0 0 0 
0 0 0 0 0 0 0 0 0 
0 0 0 0 0 0 0 0 0 
0 0 0 0 0 0 0 0 0 
0 0 0 0 0 0 0 0 0 
0 0 0 0 0 0 0 0 0 
0 0 0 0 0 0 0 0 0 
0 0 0 0 0 0 0 0 0 
0 0 0 0 0 0 0 0 0 
0 0 0 0 0 0 0 0 0 
0 0 0 0 0 0 0 0 0 
0 0 0 0 0 0 0 0 0 
0 0 0 0 0 0 0 0 0 
0 0 0 0 0 0 0 0 0 
0 0 0 0 0 0 0 0 0 
0 0 0 0 0 0 0 0 0 
0 0 0 0 0 0 0 0 0 
0 0 0 0 0 0 0 0 0 
0 0 0 0 0 0 0 0 0 
0 0 0 0 0 0 0 0 0 
0 0 0 0 0 0 0 0 0 
0 0 0 0 0 0 0 0 0 
0 0 0 0 0 0 0 0 0 
0 0 0 0 0 0 0 0 0 
0 0 0 0 0 0 0 0 0 
0 0 0 0 0 0 0 0 0 
0 0 0 0 0 0 0 0 0 
0 0 0 0 0 0 0 0 0 
0 0 0 0 0 0 0 0 0 
0 0 0 0 0 0 0 0 0 
0 0 0 0 0 0 0 0 0 
0 0 0 0 0 0 0 0 0 
0 0 0 0 0 0 0 0 0 
0 0 0 
v 3 1000 double
-0.015566169694 -0.019830323765 0.0024259467326 0.015644626629 -0.073955879887 0.011437117124 -0.0024171701641 0.0017262559797 0.0004259594501 
-0.0022518551425 0.000169590572 -0.00046931412628 -0.0011123887062 0.00050447017313 -0.0020068796994 0.046927883858 -0.018067634295 -0.010263926407 
-0.0014531475688 0.001075876729 0.0001738484605 -0.0013627562473 0.00035524319218 -0.00062047370664 -0.0014871920191 0.00011393764049 -0.00094340074681 
-0.0018833539189 0.0017688846205 -0.0009225813111 -0.00030472404231 0.00034787667501 -0.00090597463549 0.00010036537271 -0.00011370492383 -0.00014304239414 
0.10260657325 -0.025929430929 -0.0053071484276 0.0082644363284 -0.0056334993891 -5.8728763534e-05 -0.00084948134544 -0.00020007413061 -0.00021945928828 
-0.00099786206887 -0.00043575815583 -0.00028536915709 -0.00056849419229 -0.00051973234766 -0.00051565283405 -0.00038812111343 -0.00013086229062 -0.00029105484245 
-0.00089093928048 -0.00012296409748 -0.0010400273504 -0.00016117233045 -0.00025826908442 -0.00012395638901 -0.00017706999911 -0.00016805878448 -0.00031903474468 
0.14871661235 0.016423313331 0.011845556257 0.15968985264 -0.039575708313 0.0041253445453 -8.9174360042e-05 -0.00044451420972 -0.00016975466529 
8.673298955e-05 -0.00042938937702 -6.4400674256e-05 -0.00075509654407 -0.00016350236338 -1.5199142599e-05 -0.00055510926275 -0.00042722907764 -0.00014304530619 
-0.00073035422424 -0.00056564205313 -0.0011577177127 -0.00068527042947 -0.00026684311481 -0.0012672657046 -0.00051054623709 2.6327220874e-05 9.1358059309e-05 
-0.00029590755766 -0.00019085407016 1.8445495121e-06 -0.00017534168667 -0.00023381104402 -0.00017109246511 -0.00023894468227 -0.00023106271354 -0.00048303747723 
-0.00029226835728 -0.00029318077375 -0.00049445528815 -0.00018130944318 -0.00048134585537 -0.00047455185362 -0.00014154908561 -0.00031489979432 -0.00025987385837 
-0.00013282451435 -0.00027368695439 -0.0005229421706 -0.00088790636645 -0.00032661079281 -0.00094763158876 -0.00025994617915 1.0936745243e-05 -0.00018901671856 
-0.00027394877141 -8.9158053282e-06 -0.00021779390562 -8.7954442992e-05 -9.2452089956e-05 -0.0001543745381 -0.00027523001056 -0.00029653554413 -0.00059075417109 
-0.00027292444346 -0.00023645320286 -0.00058444441201 -0.00024823331277 -0.00036253761664 -0.0006067825653 8.508201895e-05 -0.00017274494851 -0.00028196012915 
-0.00019566599262 2.1779063634e-05 -2.4350164412e-05 -0.0005379400121 -0.00042950340321 -0.00042234424396 -0.00024569235705 -2.0899496281e-05 -0.00023959400093 
-0.00038280680607 -0.00039787860775 -0.00018214916952 -0.00038111348677 -0.00032077282484 -0.00042887884291 -0.00026342217535 -0.00020618281213 -0.000652101044 
-0.00020580385849 -0.00027791533132 -0.00064244321632 0.000356932215 -8.8941241525e-05 -3.9832616888e-05 0.00037921202022 -0.00012964120694 -0.00038232970898 
0.00064191291315 0.00098568883181 -0.00053119484616 0.0011163177953 -0.00010744489109 -0.00012940837918 0.0018360553288 -0.0022968405794 -0.00093294441288 
0.00016413165305 9.1793461411e-05 -0.00029861511015 -0.0002899942968 -0.00030563486009 0.0010752617708 -0.0035462008624 -0.002730447927 0.00048796756734 
-0.0018315515994 -0.023931934266 0.0019803766271 -0.0014405218046 2.1134334969e-05 -0.0015254478897 -0.0016071254741 -0.00075127770649 -0.0027788387091 
0.060905634343 -0.055882524262 -0.013133184743 -0.0010403753101 -0.00044010766892 -0.00081685110472 -0.0012712947058 -0.00045292121997 -0.0012680316199 
-0.0013680770111 0.00069355477649 -0.00036370147905 -0.0016657379165 -0.0032646581713 -0.0037505136433 -0.00075696360005 -0.00012382488177 -6.1821737963e-05 
-0.00091959684889 -0.00055719855742 -0.00027224473263 -0.00077517359276 0.00022864595941 0.0017625181738 -0.0010209814692 -0.00090729148376 -0.0012354921219 
-4.7427063027e-05 0.00042820456697 -0.00059399350946 -0.00021639506239 -0.00012454765126 -0.00014473509114 -0.00019023458507 -0.0002302865285 -0.00020605009584 
0.00013428556752 -0.00015888837702 -0.00016799052522 -0.0010575611159 -0.00039591620558 1.5854960853e-05 -0.00044357674361 -0.00015589876246 -0.00010545999605 
2.044367474e-05 -0.00037238459188 -0.00028853869187 -2.0061552931e-05 -0.00020369504777 -0.00032094063542 -0.00052681464061 -0.00024964374631 -0.0003372140775 
-0.00016630762748 0.00017336697973 -9.5848099476e-05 -0.00011424826838 -4.5615187825e-05 -0.00017199439781 -0.00014967660441 -0.0002141275891 -0.00013239246293 
-6.5548502086e-05 -0.0001781302915 -0.00030941929148 -0.00014919160858 -0.00015055278448 -0.00043994122572 -0.00015613404631 -0.00021803638308 -0.00055332943422 
-5.421977275e-05 -0.00050275336424 -0.00033784520004 7.6069110224e-05 -0.00028652362831 -0.00042655118001 4.7109923178e-05 -0.00029649915838 -0.00045096077851 
-0.00018446315733 -0.00024875633062 -0.0006187123138 0.00044565019749 -0.00044181368059 -0.00032870482392 -0.00020732251434 0.00017605999788 -0.00017788871751 
-0.00022156703748 -0.00023491254385 -8.0531277545e-05 -0.00025094961799 -0.00020945785019 -0.00036199368138 -0.00012968839331 -0.00010911708637 -0.00060702621872 
-0.00014707757407 -0.00017951118538 -0.00059888181522 -0.00030563041373 -0.00032552749476 -0.00070356640165 -0.00040603074631 -0.00067934152857 -0.00066790546858 
6.3647110713e-05 -0.00036142013405 -0.00056215915896 0.00016574556028 -7.8003593092e-05 -0.00044678781672 2.8307981874e-05 -0.00026404824183 -0.00039387933016 
2.3681963899e-05 -0.00020312526172 -0.00045138533418 -4.2466082159e-05 -0.00041492637187 -0.00034197221488 5.9946039615e-05 0.00016958379883 -0.00050022430185 
-0.00020013632644 -0.00058155755624 -0.00029179087219 -0.00037191688441 0.00015362339838 -0.00034559210785 -0.00034373619551 0.00025149996868 -0.0003778762429 
-0.00037728891471 3.1875177204e-05 -0.00040381813976 -0.00013377359314 -0.00027276920094 -0.00064642200638 -0.00029327130967 -0.00025249082053 -0.00075286248584 
-0.00024235705267 -2.8369685821e-05 -0.0006848415612 -0.00028375454416 -0.00038897310999 -0.00060292212769 -3.8825839213e-05 -0.00054713401675 -0.00033659369135 
0.00045152838896 -7.9200888671e-05 -0.00039347741494 0.00028583426939 -0.00037299367578 -0.00030461584168 0.00030146303901 0.00018266549896 -0.00014300161726 
-0.00035528922875 -8.9902629369e-05 -0.0017848902201 -0.00031265219372 0.00037939494152 -0.000927056257 9.595233779e-05 -0.00083936793533 0.0016574643081 
0.00027974705445 -0.0002625890584 -0.00018855856445 0.00016344865333 -0.0022479030652 0.00060044960911 -0.0013350281709 -0.0012079885664 -0.0016557310943 
-0.0011121500887 -0.0011182149987 -0.00057929755088 -0.00097405016855 -0.0010782196347 -0.0011466046676 -0.0013129345529 -0.00028444333828 -0.00081138338922 
0.0028101538189 -0.00026103411383 0.0030262503995 -0.00076844606213 0.00023081130479 0.00030663182864 -0.00059984398503 -0.00048967947375 -0.00034884567498 
-0.0002686979379 0.00055106933971 -0.00070144895854 0.0012220940317 -0.0053740682898 -0.0014551280752 0.00037317949633 -0.00027383900726 5.0083828442e-05 
0.00011587056427 -0.00019423193303 -0.0002299036257 -0.00036670300919 -9.4166379179e-05 -0.00036534008221 -0.039634182136 -0.24933960347 -0.16296741284 
0.0007491932913 -0.00052357712711 -0.00070577284913 -0.00010642747113 -7.1231379599e-05 -9.3596770058e-05 0.00015204972254 0.00010767916274 -0.00068025028849 
4.9202396051e-05 -0.00020034619452 -0.00019942907242 -0.0012415324688 -4.4615944906e-05 0.00048553126657 0.00075233067293 0.0011525790594 -0.0010265952417 