# vtk DataFile Version 4.1
Generated by LIGGGHTS
ASCII
DATASET POLYDATA
POINTS 1000 float
0.00430901 -0.0469268 0.0020184 0.014341 -0.0399836 0.00161288 0.00615947 -0.0158488 0.00197025 
0.00236998 -0.0130734 0.00167972 0.0052008 -0.013162 0.00198856 0.0079947 -0.0136636 0.00199032 
0.0166197 -0.0125504 0.00209768 0.0220327 -0.0127439 0.00160863 0.00255631 -0.0102241 0.00183597 
0.00539684 -0.0103097 0.00166252 0.00825859 -0.0102648 0.00156831 0.011107 -0.0102103 0.00150213 
0.013659 -0.0114699 0.00164848 0.0193462 -0.011799 0.00177478 0.0309183 -0.0101474 0.00187144 
-0.00444089 -0.00939166 0.00243921 -0.0002426 -0.00969913 0.00164402 0.00400743 -0.00779104 0.00158052 
0.00682188 -0.00785194 0.00194528 0.00964012 -0.00774978 0.00159275 0.012441 -0.00777496 0.00214376 
0.0149986 -0.00894416 0.00164068 0.0203781 -0.00916964 0.00208312 0.0254516 -0.00885571 0.00190684 
0.0282413 -0.00923424 0.00151237 0.0323262 -0.00767266 0.00167054 -0.0271513 -0.00732562 0.00206672 
-0.00628551 -0.00739559 0.00157575 -0.00347462 -0.00683281 0.0015794 -0.00065705 -0.00692918 0.00209252 
0.00810457 -0.00532253 0.00160851 0.0130572 -0.00505578 0.00159884 0.0156664 -0.00616976 0.0015318 
0.0182125 -0.00741832 0.00153643 0.0237618 -0.00656333 0.0018058 0.0271541 -0.00658537 0.00155422 
-0.0264143 -0.0045696 0.00208689 -0.000869988 -0.0025164 0.00151979 0.00641115 -0.0029896 0.00150138 
0.0112917 -0.00283906 0.00188395 0.017544 -0.00402331 0.00149819 0.0202429 -0.00360201 0.00228451 
0.0229866 -0.00382152 0.00152737 0.0257957 -0.00410249 0.00200195 0.0286099 -0.00412918 0.00149111 
0.0313183 -0.0049943 0.0016951 -0.00488482 -0.000271957 0.00223355 -0.00205656 -0.000118401 0.00251657 
0.00416388 -0.001225 0.0015296 0.00680774 -0.000150392 0.00155518 0.0174537 -0.00117677 0.0015155 
0.0226167 -0.000983175 0.00162363 0.0306211 -0.00234532 0.002474 0.0368595 -0.000814224 0.00198792 
0.00688972 -0.0480388 0.00247085 0.00663573 -0.045239 0.00289758 0.00356814 -0.0152829 0.00300866 
0.00570631 -0.0170388 0.00452451 0.00227637 -0.0132398 0.00453018 0.00646625 -0.0142833 0.00431648 
0.00928149 -0.0125745 0.00429048 0.0147872 -0.013227 0.00418217 0.000840595 -0.0108195 0.00402138 
0.00410172 -0.0110865 0.00408611 0.012086 -0.012354 0.00389919 0.0182426 -0.0120935 0.00439076 
0.0213768 -0.0118248 0.00422951 0.0229956 -0.0102089 0.00252863 -0.00253411 -0.0079598 0.00400852 
0.00265058 -0.00862666 0.00420686 0.0105084 -0.010006 0.00427066 0.0136443 -0.00901331 0.00441991 
0.0174546 -0.00989033 0.00276449 0.0160988 -0.00765284 0.00392818 0.018935 -0.00792533 0.00423904 
0.0215458 -0.00900343 0.00468152 0.024382 -0.0087521 0.00454681 0.0272164 -0.00881264 0.00415091 
-0.0281879 -0.00560278 0.00408943 -0.0252065 -0.00637883 0.00393199 -0.00735239 -0.00552951 0.00346768 
-0.00531418 -0.00736892 0.00425144 -0.000224152 -0.00658492 0.00489998 -0.00229033 -0.00514719 0.00356377 
0.00291858 -0.00589516 0.00342548 0.00605721 -0.00680665 0.00448614 0.0136617 -0.00616052 0.00416532 
0.0193144 -0.0051093 0.00453873 0.0212154 -0.00664085 0.00308716 0.0243969 -0.00590402 0.00452564 
0.027248 -0.00595168 0.00433146 0.0297204 -0.00711251 0.00272095 0.032055 -0.00627988 0.00414263 
-0.0282294 -0.00282793 0.00342953 -0.00581728 -0.00323696 0.00422378 -0.00339178 -0.00261776 0.00285587 
0.000452953 -0.00449101 0.00309556 0.0018702 -0.00253617 0.00462148 0.00430065 -0.00338519 0.00339322 
0.00873756 -0.00299632 0.00312577 0.0133271 -0.00330406 0.00382033 0.0159181 -0.00445895 0.00380163 
0.0180821 -0.00259816 0.00391326 0.0213172 -0.00310146 0.00487474 0.0240507 -0.00311803 0.00406443 
0.0297616 -0.00457693 0.00405602 -0.00745174 -0.00141356 0.00277664 -0.000972307 -0.00235458 0.0043576 
0.00072666 -0.000586266 0.002891 0.00642839 -0.00156849 0.00398149 0.0133227 -4.02749e-05 0.00496483 
0.0166652 -8.56883e-05 0.00402944 0.0200006 -0.000799943 0.00277399 0.0268268 -0.00250741 0.00412375 
0.0287393 -0.000473578 0.00354346 0.00413411 -0.0150209 0.00578034 0.00826731 -0.0140646 0.00649185 
0.0110538 -0.013274 0.00641379 -0.000313118 -0.012066 0.00626625 0.00239837 -0.0110772 0.0063905 
0.00534375 -0.0124881 0.00624322 0.00735872 -0.0104862 0.00623839 0.0104933 -0.0105386 0.00707006 
0.0136025 -0.011918 0.00643619 0.0175162 -0.0121022 0.00714134 0.019794 -0.0106112 0.00627672 
0.0243407 -0.0102021 0.00701195 -0.000744898 -0.00925245 0.00581566 0.00173935 -0.00833495 0.00690035 
0.0049274 -0.00902089 0.00588158 0.00940759 -0.00763287 0.00537911 0.0119723 -0.00813561 0.00655238 
0.0171795 -0.00972121 0.00559167 -0.00515484 -0.00740829 0.00710365 -0.00424298 -0.00513754 0.00564104 
-0.00229941 -0.00735218 0.00728051 0.00164509 -0.0054799 0.00674098 0.00657509 -0.00629944 0.00723995 
0.0115859 -0.00537133 0.00595373 0.021822 -0.00578324 0.00573533 0.0246004 -0.00733341 0.00700674 
-0.00824736 -0.00422825 0.00585136 -0.00584169 -0.0032695 0.00706982 -0.00155588 -0.00441953 0.00622363 
0.0043011 -0.00497584 0.00576363 0.00326266 -0.00268397 0.00710674 0.00694949 -0.00415544 0.00503729 
0.00957926 -0.00335856 0.00581817 0.0126685 -0.00279826 0.00652835 0.0147423 -0.00474686 0.00639874 
0.0193622 -0.00352578 0.00690801 0.023371 -0.00362229 0.00679013 0.0266747 -0.00413707 0.00646598 
-0.00755253 -0.00147583 0.00564533 -0.00350262 -0.0023903 0.00568948 0.000228865 -0.00231185 0.00694451 
0.00665495 -0.000155601 0.00643011 0.0152456 -0.00206404 0.00553873 0.0178381 -0.00117681 0.00637735 
0.0225033 -0.000937136 0.00630049 0.0303488 -0.0020711 0.00530134 0.0319838 -0.000130217 0.00660737 
0.00366477 -0.0120694 0.00875401 0.0132945 -0.00760814 0.00903081 0.0156395 -0.00855441 0.00770316 
0.0192222 -0.00931078 0.00874596 0.0218069 -0.00903601 0.00753308 -0.00633479 -0.00546658 0.00883878 
-0.000504683 -0.00556974 0.00862377 0.00387208 -0.00675497 0.00796341 0.00654341 -0.00532217 0.00990518 
0.00934886 -0.00588025 0.00761597 0.0200566 -0.00679054 0.00771869 0.0226534 -0.00582829 0.00846858 
-0.00839482 -0.0025445 0.00815175 -0.00516977 -0.00306414 0.00983671 -0.000419438 -0.00258136 0.00971484 
0.00755613 -0.00366999 0.00779831 0.0103174 -0.00338295 0.00857423 0.0127782 -0.00484586 0.00849385 
0.0167905 -0.00320313 0.00810748 -0.00220456 -0.00124135 0.00794663 0.00137063 -0.00051903 0.00886545 
0.00556205 -0.00174881 0.00852728 0.0145159 -0.00147525 0.00824204 0.0169609 -0.000725616 0.00950745 
0.0203752 -0.00118311 0.00818858 -0.0282468 -0.0302529 0.0112455 0.009202 -0.0047911 0.010787 
0.0125702 -0.00246405 0.0100734 0.00349919 -0.0102358 0.0204915 0.0134513 -0.00572242 0.0209539 
0.01988 -0.00658548 0.0207563 -0.0055848 -0.00262286 0.0205516 0.00446161 -0.0026273 0.0207949 
0.00839111 -0.00467737 0.020467 0.0285673 -0.0043284 0.0205765 0.019515 -0.00186515 0.0204544 
0.0110937 -0.0129354 0.0223917 -0.00154334 -0.0101732 0.0216384 0.00706869 -0.0124446 0.0210318 
0.016809 -0.0109745 0.0229706 0.0064568 -0.00768496 0.0214082 0.011844 -0.00976446 0.0213463 
0.0158248 -0.00806689 0.0220288 0.0219084 -0.00938161 0.0209873 -0.00705797 -0.00547328 0.0226131 
-0.00367241 -0.00516981 0.0228383 0.00349982 -0.0070736 0.0215407 0.0227121 -0.00706899 0.0232617 
0.0271361 -0.00566692 0.0229213 -0.00978838 -0.002504 0.0223295 -0.000521577 -0.00334463 0.0234371 
0.00836173 -0.00282971 0.022858 0.0112205 -0.00349384 0.0215179 0.0245364 -0.00360176 0.0223457 
0.0272796 -0.00218533 0.0229532 0.00654792 -0.0132181 0.0248134 0.0103648 -0.0132939 0.0257749 
0.0137241 -0.0100998 0.023854 0.000578021 -0.00905996 0.0250573 0.00600125 -0.00958303 0.02422 
0.00936901 -0.00899664 0.0245245 0.0183862 -0.00838178 0.0238646 0.00287227 -0.0062379 0.0253045 
0.00663578 -0.00522061 0.0237246 0.015608 -0.00627634 0.0246673 0.0200825 -0.00540089 0.0236963 
-0.00661758 -0.00498749 0.0257738 -0.00229182 -0.00409767 0.0258852 0.0233522 -0.00458587 0.0258429 
-0.00569476 -0.00203973 0.0244677 0.0150257 -0.00243068 0.0238892 0.0196131 -0.00227081 0.0252148 
0.0041859 -0.0127503 0.0266191 0.00692926 -0.010494 0.0274464 -0.00376229 -0.00833338 0.0262153 
0.00231845 -0.00865902 0.0275228 0.0103748 -0.00771657 0.0274455 0.0139207 -0.00880097 0.0271098 
0.0216941 -0.00991844 0.0261097 -0.000430001 -0.00660907 0.0265101 0.00755183 -0.00643588 0.0270674 
0.00639831 -0.00258572 0.0268123 0.0110749 -0.00257683 0.0264304 0.0161083 -0.00401193 0.0265893 
0.0286865 -0.00314983 0.0261467 -0.00961872 -0.00207077 0.0267036 0.00163857 -0.00168436 0.0262444 
0.0250395 -0.00175307 0.0263534 -0.029156 -0.0170548 0.0362482 -0.00937469 0.000283115 0.00152744 
-0.00747663 0.0021792 0.0024965 -0.00350368 0.00213696 0.00157355 0.0139843 3.83836e-05 0.00218545 
0.0163954 0.00147738 0.00164939 0.0215238 0.00157605 0.00229262 0.0365151 0.00200833 0.00196059 
-0.0100321 0.00305984 0.00163739 -0.00558323 0.00407022 0.0014832 0.0160555 0.00422941 0.00240286 
0.024874 0.00325999 0.00152283 0.0272924 0.00449425 0.00239017 0.0338945 0.00306473 0.00230575 
-0.0118038 0.0073871 0.00207706 -0.00627309 0.0068588 0.00154081 0.000597919 0.00599843 0.00165604 
0.0114578 0.00704643 0.00148028 0.0182926 0.00585983 0.00165276 0.0282967 0.00717745 0.00236666 
0.0342646 0.0057754 0.00148272 0.00133046 0.0087535 0.00153088 0.00900775 0.00858879 0.00149699 
0.0115054 0.00988695 0.00156845 0.0329739 0.00831942 0.00153289 -0.011843 0.0102465 0.00208353 
-0.00968098 0.0120215 0.00149044 -0.00696861 0.0114731 0.00220116 -0.00360505 0.0100183 0.0022374 
-0.000901571 0.0105416 0.00147001 0.00361771 0.0102736 0.00226135 0.00629591 0.0110388 0.00158827 
0.00912811 0.0114609 0.00160406 0.0140183 0.0111633 0.00192567 0.0192315 0.0119437 0.00201942 
0.024058 0.0115669 0.00199956 0.0264694 0.0101064 0.00162034 0.0292766 0.0105261 0.00146357 
-0.014304 0.0141699 0.00235203 -0.0114351 0.0141452 0.00230308 -0.00871942 0.0147005 0.00153268 
0.00426176 0.0130096 0.00189462 0.00957522 0.0142809 0.00182642 0.0168224 0.0133852 0.00147436 
0.0212028 0.014012 0.00204804 0.0240293 0.0144052 0.00172326 0.0265221 0.0129726 0.00171666 
[...]
POINT_DATA 1000
FIELD FieldData 7
id 1 1000 int
10 18 49 266 25 280 297 3 263 
22 12 290 285 53 32 36 282 268 
251 277 295 37 48 21 9 141 40 
302 17 2 16 50 30 46 15 39 
23 43 104 38 33 7 19 274 309 
247 191 107 235 6 138 164 279 248 
24 41 254 1 252 52 262 504 298 
256 301 296 272 27 58 306 520 258 
56 13 45 294 264 260 51 83 259 
270 253 28 287 278 31 273 4 281 
305 34 65 29 304 205 47 303 308 
44 8 5 42 289 261 292 291 54 
11 35 434 67 14 527 554 26 551 
558 509 531 267 535 555 544 543 501 
533 524 508 548 552 526 257 549 293 
525 534 528 286 284 503 507 506 255 
283 510 265 275 300 269 556 307 530 
529 276 536 158 299 288 547 511 689 
515 516 518 546 521 502 522 540 542 
532 538 512 519 523 505 545 539 517 
513 541 648 537 271 550 514 20 553 
557 769 758 800 806 764 783 788 790 
766 761 789 782 776 774 797 803 784 
757 796 763 767 804 753 799 793 752 
807 810 773 802 765 787 755 786 798 
762 791 772 794 759 785 771 754 770 
775 805 768 781 777 795 751 778 808 
756 760 780 801 792 779 809 57 193 
339 102 378 55 186 160 357 199 161 
131 242 218 363 89 429 112 331 384 
234 69 63 206 433 455 227 229 237 
118 243 123 116 211 238 157 130 149 
178 223 175 204 84 62 155 203 165 
80 169 194 183 472 154 249 179 222 
90 310 120 87 332 208 117 86 127 
182 110 64 430 105 407 404 75 231 
399 174 159 740 437 184 77 103 195 
484 367 98 236 360 151 177 143 239 
156 487 431 392 496 190 139 95 91 
233 416 397 323 113 389 482 72 66 
685 136 393 214 499 209 344 413 202 
330 328 724 96 232 359 423 94 212 
314 445 119 460 425 380 419 313 101 
85 122 73 213 189 147 99 92 317 
128 210 145 246 220 241 180 352 448 
142 185 78 88 198 61 100 408 166 
428 415 490 93 311 163 240 462 492 
570 346 427 471 387 146 59 221 115 
201 385 483 394 391 82 126 245 196 
226 109 106 412 495 379 465 347 435 
140 436 167 97 364 376 366 315 464 
188 341 451 422 463 418 402 60 390 
447 349 170 668 79 162 225 176 439 
224 153 334 76 388 121 124 197 81 
148 459 125 603 329 640 565 219 370 
320 749 401 134 192 114 207 111 200 
679 709 457 369 132 477 732 383 688 
698 449 486 468 382 129 68 655 642 
678 365 673 629 452 450 454 338 680 
563 335 398 727 666 438 173 172 135 
355 362 250 333 358 475 707 498 152 
70 466 396 456 561 343 476 340 350 
692 473 215 405 150 181 342 470 622 
598 494 74 480 137 244 368 373 461 
411 377 337 420 348 230 371 386 674 
409 406 414 481 474 594 714 395 336 
444 741 467 319 575 400 722 620 322 
728 560 171 581 702 592 479 318 485 
750 618 491 432 356 615 381 616 71 
564 442 228 426 735 372 623 458 652 
168 326 353 325 571 567 613 577 663 
441 573 351 601 695 469 596 703 417 
440 747 645 675 632 701 566 744 579 
670 593 738 730 589 316 656 611 591 
726 664 607 453 493 619 718 653 625 
410 609 446 626 606 354 217 108 403 
489 682 654 650 715 562 361 421 497 
488 617 599 610 624 700 424 710 723 
568 634 748 321 614 327 312 578 646 
660 733 739 585 588 743 375 672 691 
697 586 600 587 621 712 595 597 576 
643 651 644 559 590 716 602 628 639 
662 720 604 734 608 708 746 696 631 
686 681 690 635 500 729 693 638 612 
574 704 572 443 649 717 647 633 711 
659 731 627 684 569 705 669 582 637 
658 657 683 584 374 671 345 736 630 
580 745 719 742 324 721 583 713 478 
694 676 636 667 737 725 665 687 661 
641 699 677 706 605 216 144 133 876 
927 981 992 862 961 915 890 835 843 
901 979 856 924 917 912 859 982 828 
973 834 970 857 905 893 988 875 885 
818 989 821 860 929 187 959 921 967 
916 833 837 847 855 935 871 814 910 
813 870 883 866 951 914 867 824 897 
976 957 949 881 963 948 968 902 933 
845 993 852 889 822 987 925 819 947 
940 952 986 811 978 848 906 898 839 
878 919 922 945 974 886 984 971 907 
841 840 900 931 911 937 817 930 964 
936 895 863 812 953 990 943 873 954 
950 934 894 966 977 826 844 904 923 
836 816 838 868 944 865 965 899 854 
827 830 858 874 879 913 991 939 853 
861 932 877 825 896 997 941 869 942 
882 891 864 985 926 903 975 849 998 
872 842 888 851 969 983 823 955 920 
908 846 815 1000 960 938 884 995 956 
996 994 829 880 831 918 820 980 999 
972 887 832 892 962 850 946 928 958 
909 
type 1 1000 int
1 1 1 1 1 1 1 1 1 
1 1 1 1 1 1 1 1 1 
1 1 1 1 1 1 1 1 1 
1 1 1 1 1 1 1 1 1 
1 1 1 1 1 1 1 1 1 
1 1 1 1 1 1 1 1 1 
1 1 1 1 1 1 1 1 1 
1 1 1 1 1 1 1 1 1 
1 1 1 1 1 1 1 1 1 
1 1 1 1 1 1 1 1 1 
1 1 1 1 1 1 1 1 1 
1 1 1 1 1 1 1 1 1 
1 1 1 1 1 1 1 1 1 
1 1 1 1 1 1 1 1 1 
1 1 1 1 1 1 1 1 1 
1 1 1 1 1 1 1 1 1 
1 1 1 1 1 1 1 1 1 
1 1 1 1 1 1 1 1 1 
1 1 1 1 1 1 1 1 1 
1 1 1 1 1 1 1 1 1 
1 1 1 1 1 1 1 1 1 
1 1 1 1 1 1 1 1 1 
1 1 1 1 1 1 1 1 1 
1 1 1 1 1 1 1 1 1 
1 1 1 1 1 1 1 1 1 
1 1 1 1 1 1 1 1 1 
1 1 1 1 1 1 1 1 1 
1 1 1 1 1 1 1 1 1 
1 1 1 1 1 1 1 1 1 
1 1 1 1 1 1 1 1 1 
1 1 1 1 1 1 1 1 1 
1 1 1 1 1 1 1 1 1 
1 1 1 1 1 1 1 1 1 
1 1 1 1 1 1 1 1 1 
1 1 1 1 1 1 1 1 1 
1 1 1 1 1 1 1 1 1 
1 1 1 1 1 1 1 1 1 
1 1 1 1 1 1 1 1 1 
1 1 1 1 1 1 1 1 1 
1 1 1 1 1 1 1 1 1 
1 1 1 1 1 1 1 1 1 
1 1 1 1 1 1 1 1 1 
1 1 1 1 1 1 1 1 1 
1 1 1 1 1 1 1 1 1 
1 1 1 1 1 1 1 1 1 
1 1 1 1 1 1 1 1 1 
1 1 1 1 1 1 1 1 1 
1 1 1 1 1 1 1 1 1 
1 1 1 1 1 1 1 1 1 
1 1 1 1 1 1 1 1 1 
1 1 1 1 1 1 1 1 1 
1 1 1 1 1 1 1 1 1 
1 1 1 1 1 1 1 1 1 
1 1 1 1 1 1 1 1 1 
1 1 1 1 1 1 1 1 1 
1 1 1 1 1 1 1 1 1 
1 1 1 1 1 1 1 1 1 
1 1 1 1 1 1 1 1 1 
1 1 1 1 1 1 1 1 1 
1 1 1 1 1 1 1 1 1 
1 1 1 1 1 1 1 1 1 
1 1 1 1 1 1 1 1 1 
1 1 1 1 1 1 1 1 1 
1 1 1 1 1 1 1 1 1 
1 1 1 1 1 1 1 1 1 
1 1 1 1 1 1 1 1 1 
1 1 1 1 1 1 1 1 1 
1 1 1 1 1 1 1 1 1 
1 1 1 1 1 1 1 1 1 
1 1 1 1 1 1 1 1 1 
1 1 1 1 1 1 1 1 1 
1 1 1 1 1 1 1 1 1 
1 1 1 1 1 1 1 1 1 
1 1 1 1 1 1 1 1 1 
1 1 1 1 1 1 1 1 1 
1 1 1 1 1 1 1 1 1 
1 1 1 1 1 1 1 1 1 
1 1 1 1 1 1 1 1 1 
1 1 1 1 1 1 1 1 1 
1 1 1 1 1 1 1 1 1 
1 1 1 1 1 1 1 1 1 
1 1 1 1 1 1 1 1 1 
1 1 1 1 1 1 1 1 1 
1 1 1 1 1 1 1 1 1 
1 1 1 1 1 1 1 1 1 
1 1 1 1 1 1 1 1 1 
1 1 1 1 1 1 1 1 1 
1 1 1 1 1 1 1 1 1 
1 1 1 1 1 1 1 1 1 
1 1 1 1 1 1 1 1 1 
1 1 1 1 1 1 1 1 1 
1 1 1 1 1 1 1 1 1 
1 1 1 1 1 1 1 1 1 
1 1 1 1 1 1 1 1 1 
1 1 1 1 1 1 1 1 1 
1 1 1 1 1 1 1 1 1 
1 1 1 1 1 1 1 1 1 
1 1 1 1 1 1 1 1 1 
1 1 1 1 1 1 1 1 1 
1 1 1 1 1 1 1 1 1 
1 1 1 1 1 1 1 1 1 
1 1 1 1 1 1 1 1 1 
1 1 1 1 1 1 1 1 1 
1 1 1 1 1 1 1 1 1 
1 1 1 1 1 1 1 1 1 
1 1 1 1 1 1 1 1 1 
1 1 1 1 1 1 1 1 1 
1 1 1 1 1 1 1 1 1 
1 1 1 1 1 1 1 1 1 
1 1 1 1 1 1 1 1 1 
1 1 1 1 1 1 1 1 1 
1 
i 3 1000 int
0 0 0 0 0 0 0 0 0 
0 0 0 0 0 0 0 0 0 
0 0 0 0 0 0 0 0 0 
0 0 0 0 0 0 0 0 0 
0 0 0 0 0 0 0 0 0 
0 0 0 0 0 0 0 0 0 
0 0 0 0 0 0 0 0 0 
0 0 0 0 0 0 0 0 0 
0 0 0 0 0 0 0 0 0 
0 0 0 0 0 0 0 0 0 
0 0 0 0 0 0 0 0 0 
0 0 0 0 0 0 0 0 0 
0 0 0 0 0 0 0 0 0 
0 0 0 0 0 0 0 0 0 
0 0 0 0 0 0 0 0 0 
0 0 0 0 0 0 0 0 0 
0 0 0 0 0 0 0 0 0 
0 0 0 0 0 0 0 0 0 
0 0 0 0 0 0 0 0 0 
0 0 0 0 0 0 0 0 0 
0 0 0 0 0 0 0 0 0 
0 0 0 0 0 0 0 0 0 
0 0 0 0 0 0 0 0 0 
0 0 0 0 0 0 0 0 0 
0 0 0 0 0 0 0 0 0 
0 0 0 0 0 0 0 0 0 
0 0 0 0 0 0 0 0 0 
0 0 0 0 0 0 0 0 0 
0 0 0 0 0 0 0 0 0 
0 0 0 0 0 0 0 0 0 
0 0 0 0 0 0 0 0 0 
0 0 0 0 0 0 0 0 0 
0 0 0 0 0 0 0 0 0 
0 0 0 0 0 0 0 0 0 
0 0 0 0 0 0 0 0 0 
0 0 0 0 0 0 0 0 0 
0 0 0 0 0 0 0 0 0 
0 0 0 0 0 0 0 0 0 
0 0 0 0 0 0 0 0 0 
0 0 0 0 0 0 0 0 0 
0 0 0 0 0 0 0 0 0 
0 0 0 0 0 0 0 0 0 
0 0 0 0 0 0 0 0 0 
0 0 0 0 0 0 0 0 0 
0 0 0 0 0 0 0 0 0 
0 0 0 0 0 0 0 0 0 
0 0 0 0 0 0 0 0 0 
0 0 0 0 0 0 0 0 0 
0 0 0 0 0 0 0 0 0 
0 0 0 0 0 0 0 0 0 
0 0 0 0 0 0 0 0 0 
0 0 0 0 0 0 0 0 0 
0 0 0 0 0 0 0 0 0 
0 0 0 0 0 0 0 0 0 
0 0 0 0 0 0 0 0 0 
0 0 0 0 0 0 0 0 0 
0 0 0 0 0 0 0 0 0 
0 0 0 0 0 0 0 0 0 
0 0 0 0 0 0 0 0 0 
0 0 0 0 0 0 0 0 0 
0 0 0 0 0 0 0 0 0 
0 0 0 0 0 0 0 0 0 
0 0 0 0 0 0 0 0 0 
0 0 0 0 0 0 0 0 0 
0 0 0 0 0 0 0 0 0 
0 0 0 0 0 0 0 0 0 
0 0 0 0 0 0 0 0 0 
0 0 0 0 0 0 0 0 0 
0 0 0 0 0 0 0 0 0 
0 0 0 0 0 0 0 0 0 
0 0 0 0 0 0 0 0 0 
0 0 0 0 0 0 0 0 0 
0 0 0 0 0 0 0 0 0 
0 0 0 0 0 0 0 0 0 
0 0 0 0 0 0 0 0 0 
0 0 0 0 0 0 0 0 0 
0 0 0 0 0 0 0 0 0 
0 0 0 0 0 0 0 0 0 
0 0 0 0 0 0 0 0 0 
0 0 0 0 0 0 0 0 0 
0 0 0 0 0 0 0 0 0 
0 0 0 0 0 0 0 0 0 
0 0 0 0 0 0 0 0 0 
0 0 0 0 0 0 0 0 0 
0 0 0 0 0 0 0 0 0 
0 0 0 0 0 0 0 0 0 
0 0 0 0 0 0 0 0 0 
0 0 0 0 0 0 0 0 0 
0 0 0 0 0 0 0 0 0 
0 0 0 0 0 0 0 0 0 
0 0 0 0 0 0 0 0 0 
0 0 0 0 0 0 0 0 0 
0 0 0 0 0 0 0 0 0 
0 0 0 0 0 0 0 0 0 
0 0 0 0 0 0 0 0 0 
0 0 0 0 0 0 0 0 0 
0 0 0 0 0 0 0 0 0 
0 0 0 0 0 0 0 0 0 
0 0 0 0 0 0 0 0 0 
0 0 0 0 0 0 0 0 0 
0 0 0 0 0 0 0 0 0 
0 0 0 0 0 0 0 0 0 
0 0 0 0 0 0 0 0 0 
0 0 0 0 0 0 0 0 0 
0 0 0 0 0 0 0 0 0 
0 0 0 0 0 0 0 0 0 
0 0 0 0 0 0 0 0 0 
0 0 0 0 0 0 0 0 0 
0 0 0 0 0 0 0 0 0 
0 0 0 0 0 0 0 0 0 
0 0 0 0 0 0 0 0 0 
0 0 0 0 0 0 0 0 0 
0 0 0 0 0 0 0 0 0 
0 0 0 0 0 0 0 0 0 
0 0 0 0 0 0 0 0 0 
0 0 0 0 0 0 0 0 0 
0 0 0 0 0 0 0 0 0 
0 0 0 0 0 0 0 0 0 
0 0 0 0 0 0 0 0 0 
0 0 0 0 0 0 0 0 0 
0 0 0 0 0 0 0 0 0 
0 0 0 0 0 0 0 0 0 
0 0 0 0 0 0 0 0 0 
0 0 0 0 0 0 0 0 0 
0 0 0 0 0 0 0 0 0 
0 0 0 0 0 0 0 0 0 
0 0 0 0 0 0 0 0 0 
0 0 0 0 0 0 0 0 0 
0 0 0 0 0 0 0 0 0 
0 0 0 0 0 0 0 0 0 
0 0 0 0 0 0 0 0 0 
0 0 0 0 0 0 0 0 0 
0 0 0 0 0 0 0 0 0 
0 0 0 0 0 0 0 0 0 
0 0 0 0 0 0 0 0 0 
0 0 0 0 0 0 0 0 0 
0 0 0 0 0 0 0 0 0 
0 0 0 0 0 0 0 0 0 
0 0 0 0 0 0 0 0 0 
0 0 0 0 0 0 0 0 0 
0 0 0 0 0 0 0 0 0 
0 0 0 0 0 0 0 0 0 
0 0 0 0 0 0 0 0 0 
0 0 0 0 0 0 0 0 0 
0 0 0 0 0 0 0 0 0 
0 0 0 0 0 0 0 0 0 
0 0 0 0 0 0 0 0 0 
0 0 0 0 0 0 0 0 0 
0 0 0 0 0 0 0 0 0 
0 0 0 0 0 0 0 0 0 
0 0 0 0 0 0 0 0 0 
0 0 0 0 0 0 0 0 0 
0 0 0 0 0 0 0 0 0 
0 0 0 0 0 0 0 0 0 
0 0 0 0 0 0 0 0 0 
0 0 0 0 0 0 0 0 0 
0 0 0 0 0 0 0 0 0 
0 0 0 0 0 0 0 0 0 
0 0 0 0 0 0 0 0 0 
0 0 0 0 0 0 0 0 0 
0 0 0 0 0 0 0 0 0 
0 0 0 0 0 0 0 0 0 
0 0 0 0 0 0 0 0 0 
0 0 0 0 0 0 0 0 0 
0 0 0 0 0 0 0 0 0 
0 0 0 0 0 0 0 0 0 
0 0 0 0 0 0 0 0 0 
0 0 0 0 0 0 0 0 0 
0 0 0 0 0 0 0 0 0 
0 0 0 0 0 0 0 0 0 
0 0 0 0 0 0 0 0 0 
0 0 0 0 0 0 0 0 0 
0 0 0 0 0 0 0 0 0 
0 0 0 0 0 0 0 0 0 
0 0 0 0 0 0 0 0 0 
0 0 0 0 0 0 0 0 0 
0 0 0 0 0 0 0 0 0 
0 0 0 0 0 0 0 0 0 
0 0 0 0 0 0 0 0 0 
0 0 0 0 0 0 0 0 0 
0 0 0 0 0 0 0 0 0 
0 0 0 0 0 0 0 0 0 
0 0 0 0 0 0 0 0 0 
0 0 0 0 0 0 0 0 0 
0 0 0 0 0 0 0 0 0 
0 0 0 0 0 0 0 0 0 
0 0 0 0 0 0 0 0 0 
0 0 0 0 0 0 0 0 0 
0 0 0 0 0 0 0 0 0 
0 0 0 0 0 0 0 0 0 
0 0 0 0 0 0 0 0 0 
0 0 0 0 0 0 0 0 0 
0 0 0 0 0 0 0 0 0 
0 0 0 0 0 0 0 0 0 
0 0 0 0 0 0 0 0 0 
0 0 0 0 0 0 0 0 0 
0 0 0 0 0 0 0 0 0 
0 0 0 0 0 0 0 0 0 
0 0 0 0 0 0 0 0 0 
0 0 0 0 0 0 0 0 0 
0 0 0 0 0 0 0 0 0 
0 0 0 0 0 0 0 0 0 
0 0 0 0 0 0 0 0 0 
0 0 0 0 0 0 0 0 0 
0 0 0 0 0 0 0 0 0 
0 0 0 0 0 0 0 0 0 
0 0 0 0 0 0 0 0 0 
0 0 0 0 0 0 0 0 0 
0 0 0 0 0 0 0 0 0 
0 0 0 0 0 0 0 0 0 
0 0 0 0 0 0 0 0 0 
0 0 0 0 0 0 0 0 0 
0 0 0 0 0 0 0 0 0 
0 0 0 0 0 0 0 0 0 
0 0 0 0 0 0 0 0 0 
0 0 0 0 0 0 0 0 0 
0 0 0 0 0 0 0 0 0 
0 0 0 0 0 0 0 0 0 
0 0 0 0 0 0 0 0 0 
0 0 0 0 0 0 0 0 0 
0 0 0 0 0 0 0 0 0 
0 0 0 0 0 0 0 0 0 
0 0 0 0 0 0 0 0 0 
0 0 0 0 0 0 0 0 0 
0 0 0 0 0 0 0 0 0 
0 0 0 0 0 0 0 0 0 
0 0 0 0 0 0 0 0 0 
0 0 0 0 0 0 0 0 0 
0 0 0 0 0 0 0 0 0 
0 0 0 0 0 0 0 0 0 
0 0 0 0 0 0 0 0 0 
0 0 0 0 0 0 0 0 0 
0 0 0 0 0 0 0 0 0 
0 0 0 0 0 0 0 0 0 
0 0 0 0 0 0 0 0 0 
0 0 0 0 0 0 0 0 0 
0 0 0 0 0 0 0 0 0 
0 0 0 0 0 0 0 0 0 
0 0 0 0 0 0 0 0 0 
0 0 0 0 0 0 0 0 0 
0 0 0 0 0 0 0 0 0 
0 0 0 0 0 0 0 0 0 
0 0 0 0 0 0 0 0 0 
0 0 0 0 0 0 0 0 0 
0 0 0 0 0 0 0 0 0 
0 0 0 0 0 0 0 0 0 
0 0 0 0 0 0 0 0 0 
0 0 0 0 0 0 0 0 0 
0 0 0 0 0 0 0 0 0 
0 0 0 0 0 0 0 0 0 
0 0 0 0 0 0 0 0 0 
0 0 0 0 0 0 0 0 0 
0 0 0 0 0 0 0 0 0 
0 0 0 0 0 0 0 0 0 
0 0 0 0 0 0 0 0 0 
0 0 0 0 0 0 0 0 0 
0 0 0 0 0 0 0 0 0 
0 0 0 0 0 0 0 0 0 
0 0 0 0 0 0 0 0 0 
0 0 0 0 0 0 0 0 0 
0 0 0 0 0 0 0 0 0 
0 0 0 0 0 0 0 0 0 
0 0 0 0 0 0 0 0 0 
0 0 0 0 0 0 0 0 0 
0 0 0 0 0 0 0 0 0 
0 0 0 0 0 0 0 0 0 
0 0 0 0 0 0 0 0 0 
0 0 0 0 0 0 0 0 0 
0 0 0 0 0 0 0 0 0 
0 0 0 0 0 0 0 0 0 
0 0 0 0 0 0 0 0 0 
0 0 0 0 0 0 0 0 0 
0 0 0 0 0 0 0 0 0 
0 0 0 0 0 0 0 0 0 
0 0 0 0 0 0 0 0 0 
0 0 0 0 0 0 0 0 0 
0 0 0 0 0 0 0 0 0 
0 0 0 0 0 0 0 0 0 
0 0 0 0 0 0 0 0 0 
0 0 0 0 0 0 0 0 0 
0 0 0 0 0 0 0 0 0 
0 0 0 0 0 0 0 0 0 
0 0 0 0 0 0 0 0 0 
0 0 0 0 0 0 0 0 0 
0 0 0 0 0 0 0 0 0 
0 0 0 0 0 0 0 0 0 
0 0 0 0 0 0 0 0 0 
0 0 0 0 0 0 0 0 0 
0 0 0 0 0 0 0 0 0 
0 0 0 0 0 0 0 0 0 
0 0 0 0 0 0 0 0 0 
0 0 0 0 0 0 0 0 0 
0 0 0 0 0 0 0 0 0 
0 0 0 0 0 0 0 0 0 
0 0 0 0 0 0 0 0 0 
0 0 0 0 0 0 0 0 0 
0 0 0 0 0 0 0 0 0 
0 0 0 0 0 0 0 0 0 
0 0 0 0 0 0 0 0 0 
0 0 0 0 0 0 0 0 0 
0 0 0 0 0 0 0 0 0 
0 0 0 0 0 0 0 0 0 
0 0 0 0 0 0 0 0 0 
0 0 0 0 0 0 0 0 0 
0 0 0 0 0 0 0 0 0 
0 0 0 0 0 0 0 0 0 
0 0 0 0 0 0 0 0 0 
0 0 0 0 0 0 0 0 0 
0 0 0 0 0 0 0 0 0 
0 0 0 0 0 0 0 0 0 
0 0 0 0 0 0 0 0 0 
0 0 0 0 0 0 0 0 0 
0 0 0 0 0 0 0 0 0 
0 0 0 0 0 0 0 0 0 
0 0 0 0 0 0 0 0 0 
0 0 0 0 0 0 0 0 0 
0 0 0 0 0 0 0 0 0 
0 0 0 0 0 0 0 0 0 
0 0 0 0 0 0 0 0 0 
0 0 0 0 0 0 0 0 0 
0 0 0 0 0 0 0 0 0 
0 0 0 0 0 0 0 0 0 
0 0 0 0 0 0 0 0 0 
0 0 0 0 0 0 0 0 0 
0 0 0 0 0 0 0 0 0 
0 0 0 0 0 0 0 0 0 
0 0 0 0 0 0 0 0 0 
0 0 0 0 0 0 0 0 0 
0 0 0 0 0 0 0 0 0 
0 0 0 0 0 0 0 0 0 
0 0 0 0 0 0 0 0 0 
0 0 0 0 0 0 0 0 0 
0 0 0 0 0 0 0 0 0 
0 0 0 
v 3 1000 double
-0.13529213794 -0.018334831325 -0.032864665722 -0.28103571366 0.42233061919 0.040865327956 -0.033219944791 -0.015487653148 -0.064776875743 
0.011574888584 -0.023256930385 -0.025452128549 -0.022025138251 -0.024937595812 -0.032024431547 -0.037009555415 0.023720016989 -0.049630169119 
0.0060666763502 0.012935284474 -0.006140983951 -0.0083970888436 0.032533815353 -0.088050199801 0.049413715637 -0.006938785201 -0.046892125091 
0.025733809279 -0.011684105907 -0.030972620063 0.046871589139 -0.0095507761763 0.0063569209108 0.020862157189 0.0042978685091 0.012575517514 
0.015862825364 0.011969242567 -0.025071609196 0.011447815345 0.0001124201916 -0.017855930944 0.0087180591439 0.016052601795 0.076108783774 
0.012133197792 -0.0087299770933 -0.0085414557313 0.036694457596 -9.3609688724e-06 -0.047432831935 0.041210223234 -0.013087214135 -0.038972348604 
0.024122920541 -0.014228253318 -0.018345102993 0.014349005798 0.0043488504278 0.010342480473 0.0095099437535 0.011858415578 -0.011397279456 
0.012561489585 0.017654910534 -0.01162934248 0.024330830492 0.0072302702786 -0.010934916605 -0.017696399571 0.0060745785923 -0.045361113668 
0.0079113930363 0.014407378639 -0.010869054251 -0.013013303482 0.0048351431113 0.069156264233 -0.17253786175 -0.034798439933 -0.21670407017 
0.0095284479056 -0.02308655504 -0.028559276438 0.013766073911 -0.0064038968288 -0.012536456376 0.014116955138 0.0039516779659 -0.0065236263134 
0.00057995988118 -0.0039461856202 -0.002978315456 -0.010761204798 0.019256765967 -0.010360759349 0.0060398896871 0.027955856375 -0.0067619833633 
0.02322600382 0.012016003204 0.00072718069579 -0.028629292833 -0.02203816291 -0.028565211497 -0.0070738566932 0.025004974646 -0.053472740012 
-0.36858026179 0.0059047029717 -0.1713219631 -0.024002690076 0.0049908060345 0.0071671964411 -0.010930542935 0.011599971803 -0.014426650914 
-0.0062408294228 0.034140790995 -0.0053661406493 -0.0095153641018 0.022065709203 0.00080976723269 -0.015514965431 0.034714591281 0.0068053938042 
-0.017740134436 0.015558936869 -0.0069943236907 -0.011838545131 -0.0047707657246 -0.024246930446 -0.0090259838944 0.030783345054 -0.031415155195 
-0.0058141126631 0.02502538208 -0.01350747093 -0.037963005966 0.0047834898605 0.01448368631 -0.030386770917 0.0018139406032 0.0016690062254 
-0.016808222638 0.0050576764407 -0.0080399762624 -0.0099148034301 -0.00022478768537 0.0048354929925 -0.02210128231 0.011349406423 -0.0044420166207 
-0.0024769517857 -0.00058575872038 0.032062863326 0.013864147912 0.043264464388 -0.004586913819 -0.087384144289 -0.070801745154 0.025741615491 
0.078216691856 0.33712653667 -0.20413419703 -0.12083372356 0.53466314403 -0.0070601393173 -0.043674425102 -0.012322857137 -0.0004699584643 
0.027630167095 0.039660860364 -0.029994271497 -0.0038841188457 0.011510563349 -0.029491280471 0.00052902835453 0.0059325663979 -0.069589362409 
-0.056199206355 0.039039364793 -0.052681930731 -0.024843453226 -0.093192621935 -0.048360027571 0.023237520361 -0.0062789664474 -0.070952682116 
0.010104256459 0.025743629267 -0.024077180951 -0.028250485251 -0.0294033522 -0.050309026927 0.007270963856 0.0080887421381 -0.021283024313 
0.031820292139 -0.014365077842 -0.026956650357 0.0054835597943 0.010690369651 -0.028365162006 -0.0033070672774 -0.010991109713 -0.015113754274 
-9.231150108e-05 -0.0030317510577 -0.01651557444 -0.019410594532 -0.0018516907288 -0.026180134673 0.0010970733017 0.027985513639 -0.0022030652869 
0.0097903467025 0.020003261515 -0.012897456061 0.0039384336356 0.022148557637 -0.0067691475682 0.0096023897858 -0.00034579312181 -0.0071710744587 
0.011103290985 -0.013146257858 -0.0022347260153 0.014982791651 -0.012347106494 -0.021944258618 0.02457814964 -0.012046632293 -0.092853020583 
-0.23804779287 -0.16668145617 -0.13700146769 -0.28746039908 0.068984463087 -0.14875756804 -0.031776538373 -0.02395081736 -0.032636172809 
-0.015346491913 -0.022160346122 -0.016847626754 -0.0094638633372 -0.0013870995157 -0.0088206492762 -0.011801627741 -0.015581230725 -0.0085898217014 
0.0085377146748 0.0041669508176 -0.012020041768 -0.013648596762 0.013146907842 -0.024276415404 -0.0044826659879 0.016973030225 -0.011701783161 
0.010030732938 -0.0053213108114 0.0021818247755 0.0065787041749 -0.016542060071 -0.01402722049 0.0033157832047 -0.0042424485302 -0.0026440922673 
-0.011324968363 0.012487828916 -0.041919831434 -0.022531440895 0.038554939437 0.012917787515 -0.02467545444 0.10205905659 0.020855800847 
-0.35921840674 -0.1301915622 0.0024768820161 -0.026529974154 -0.019936011466 0.0035697388166 -0.028923292502 -0.0059086195968 0.0067139714525 
-0.016181872516 0.0049892286811 -0.0024309208691 -0.028787203852 -0.0083612867823 0.0010454222427 -0.015178066417 0.0016312277344 -0.021700656943 
-0.020022159413 0.034491944159 -0.0078440587953 -0.018200874292 0.008124479504 -0.002934939571 -0.016498562266 0.014540427784 -0.0059889513356 
-0.021012996609 0.015508729857 0.0041586550276 0.011617756341 0.0011973597786 0.0093866198165 0.0046828752183 -0.0082147268118 -0.01923930055 
-0.026246124813 0.050451440699 -0.034039871813 -0.040426341753 -0.0042230682445 0.044875203493 -0.029314221452 -0.0080002423771 0.010952401518 
-0.02722123025 -0.0011772260245 -0.0070991924225 -0.027875345436 0.0077878322867 -0.0046178528294 -0.039467768109 -0.013752852197 -0.024428330985 
-0.03397196886 0.00906355316 -0.01183245107 -0.018619208935 0.011442685426 0.029517893433 -0.0050063860868 -0.021516574124 -0.023171060483 
-0.015779912192 0.0053378958626 0.02982831583 0.042739136164 0.031642333287 -0.048003841613 0.12285744016 -0.0062748220122 -0.046256928366 
-0.13081417373 -0.062708137917 -0.1217061599 -0.056903309012 -0.14416262006 -0.18188963422 -0.012065757993 -0.015885296036 -0.042718017141 
-0.0042985433211 -0.0069268325918 -0.030859728689 0.025093826338 -0.01338072298 -0.25648964542 -0.0040553595327 -0.045980121972 -0.030271368793 
-0.21169909787 -0.1075652521 -0.13208011648 0.0059377779677 0.024192503063 -0.0085393465118 0.012139066056 -0.0091702666668 -0.0097003360177 
-0.023138652609 0.040937861361 0.055305882457 -0.024285190161 -0.060989880903 -0.042791790956 -0.027020127668 -0.04126173611 -0.021655963915 
0.0061487935586 0.021988933736 -0.024355142088 -0.031650508901 0.016435239898 -0.033094567936 -0.038687571639 0.0091602449495 -0.024613956386 
0.018210472575 0.0066758161619 -0.0135662686 0.029388081865 -0.031251766278 0.0030784888193 -0.028013765721 -0.029303923963 -0.007121626772 
0.0097264437762 -0.04724689943 -0.032226625683 -0.00097281520457 -0.0040006556786 -0.01651483481 -0.0063119162588 0.016213878422 -0.010811575149 
-0.013634322828 0.018605078317 -0.009053132346 0.011572842293 -0.010259047715 -0.0049245199195 -0.0043198031977 -0.058268406689 -0.015472520458 
-0.048681650315 -0.030506693111 -0.017818359509 -0.042265225517 -0.040085812806 -0.0084283309202 -0.023694149743 -0.027963722782 -0.0066153435156 
-0.0026184795556 0.0033572346565 -0.032850105825 -0.027004324043 -0.039077839135 0.00077087066912 -0.0116957257 0.015558941494 -0.016507817358 
-0.0061764271707 0.021081115968 0.0012500601392 -0.011895018304 0.0091810257512 -0.0032540875775 -0.019860985375 -0.0024769245533 -0.01459327214 
0.013011666358 0.018032212061 0.031396146295 0.040526966043 -0.036249396955 -0.020008726118 -0.043939593644 -0.029377439652 -0.0062981577739 
-0.022535065376 -0.029917422127 0.0060889944726 -0.029652017392 -0.028761237443 0.013736237259 -0.016060438511 -0.021295090987 0.0089247344797 