# vtk DataFile Version 4.1
Generated by LIGGGHTS
ASCII
DATASET POLYDATA
POINTS 1000 float
0.016954 -0.0386426 0.00206814 0.0054242 -0.0159053 0.00179632 0.0049066 -0.0130867 0.0017195 
0.00758598 -0.0140444 0.00157975 0.0101402 -0.0147277 0.00266218 0.0128908 -0.014316 0.00201602 
0.0220527 -0.0122768 0.00153512 0.00209232 -0.0126025 0.00148342 0.00530978 -0.0102768 0.0020046 
0.00819437 -0.0103252 0.00185432 0.0110499 -0.0103161 0.00191743 0.019289 -0.0117165 0.00197937 
-0.00450376 -0.00899785 0.00226302 -0.000316837 -0.00952491 0.00170101 0.00248112 -0.00987908 0.00217357 
0.00960374 -0.00786109 0.0019941 0.014906 -0.00900866 0.00179691 0.0180537 -0.00753938 0.00148496 
0.0203335 -0.00907756 0.00225745 0.0254069 -0.00833697 0.00224892 0.028258 -0.00854075 0.00197814 
0.0310309 -0.00911155 0.00158676 -0.00622322 -0.00685753 0.00149221 -0.00339684 -0.0064645 0.00152965 
-0.000596863 -0.00669932 0.00200419 0.00421638 -0.00766543 0.00170553 0.00769704 -0.00505762 0.00182496 
0.012901 -0.00514003 0.00189978 0.0155317 -0.00623256 0.00162682 0.0236609 -0.00608743 0.00200807 
0.0269917 -0.00598831 0.00181829 0.032199 -0.0066603 0.00247609 0.0112216 -0.0028375 0.00210344 
0.0172948 -0.00399201 0.0015232 0.0199953 -0.00342372 0.00226171 0.0228068 -0.00337169 0.00167735 
0.0256249 -0.00327323 0.00214859 0.0309811 -0.00407841 0.00221777 -0.00123923 -0.00243029 0.00154935 
0.00414043 -0.000781702 0.00152198 0.00644871 -0.00250452 0.00154731 0.0169403 -0.00115783 0.00152769 
0.0222239 -0.000584181 0.00165349 0.0284106 -0.00297702 0.00158868 0.00383838 -0.0339928 0.00414517 
0.00441362 -0.0355045 0.00179198 0.00438461 -0.0326529 0.00168331 0.00525357 -0.0169428 0.00445571 
0.00302367 -0.0148701 0.00292212 0.00612411 -0.014247 0.00401414 0.0166227 -0.012576 0.00255036 
0.00390757 -0.0107821 0.00446865 0.0136091 -0.0115668 0.00168919 0.0173614 -0.00986098 0.00299476 
0.023017 -0.00992538 0.00286301 -0.00246729 -0.00780186 0.00386046 0.000606875 -0.0103796 0.00426488 
0.00685849 -0.0079552 0.00270925 0.0124116 -0.00786821 0.00251463 0.0159532 -0.00763585 0.00408484 
0.0187872 -0.0077005 0.00421629 0.0214339 -0.00858896 0.00483258 0.0242582 -0.00830227 0.00485229 
0.02708 -0.00812699 0.00454391 -0.0202037 -0.00678057 0.00440655 -0.00740427 -0.00529594 0.00476161 
-0.00519374 -0.00698795 0.0041523 -0.000106846 -0.00653644 0.00481469 0.00293217 -0.00566243 0.00326668 
0.0135563 -0.00614703 0.00448793 0.0210292 -0.00642072 0.00302005 0.0239708 -0.00547111 0.00478533 
0.0268189 -0.0052661 0.00457296 0.0294842 -0.00629125 0.00321275 -0.0218657 -0.00446378 0.00450827 
-0.0190804 -0.00310742 0.00152119 -0.00575086 -0.0029819 0.00496088 -0.00216675 -0.00495794 0.00362003 
0.000497513 -0.00423704 0.00291081 0.00421039 -0.00310101 0.00319251 0.00864242 -0.0028345 0.00334168 
0.0132078 -0.00333184 0.00408931 0.0157976 -0.00451327 0.00388364 0.0178125 -0.00249649 0.00386916 
0.0192087 -0.00489127 0.00457775 0.0210178 -0.00269795 0.00481259 0.0238104 -0.00266419 0.00425922 
0.0291634 -0.00363302 0.00469641 0.0315733 -0.00514746 0.00481141 -0.0207559 -0.00198433 0.00360618 
-0.00755655 -0.00135772 0.00345104 -0.00353321 -0.00246774 0.00325184 -0.000922296 -0.00222412 0.00436956 
0.00191394 -0.00216017 0.00459547 0.000569286 -0.000513593 0.0026681 0.00629753 -0.00141734 0.00417995 
0.016425 -1.30896e-05 0.00411367 0.0195337 -0.000612805 0.00256354 0.0297178 -0.00116453 0.00335845 
0.0038452 -0.0147657 0.00564738 0.00195254 -0.0128678 0.00466423 0.00546963 -0.0124765 0.00614975 
0.0183866 -0.0118972 0.0046905 0.0224056 -0.0112311 0.00532428 0.00254339 -0.00822157 0.0044456 
0.0128601 -0.00883434 0.00515921 0.0172593 -0.00951144 0.00581915 0.00613909 -0.00666358 0.00515136 
0.0214876 -0.00546186 0.00620143 -0.019035 -0.00421306 0.00413451 -0.00396144 -0.0050455 0.00583486 
-0.00122633 -0.00434035 0.00624845 0.00418204 -0.00463177 0.00561467 0.00692653 -0.00392882 0.00534278 
0.00951193 -0.00300922 0.00605948 0.0127745 -0.00294988 0.00689444 0.0149339 -0.00476158 0.00657906 
0.0228847 -0.00308551 0.00693668 -0.00321462 -0.00230437 0.00608008 0.00637672 1.5829e-05 0.00697899 
0.0151902 -0.00205859 0.00567631 0.0178105 -0.00109657 0.00635713 0.0108811 -0.00496433 0.00760703 
0.0147646 -0.00163068 0.00846112 -0.0174203 -0.0233469 0.0139562 0.0023089 -0.011819 0.015621 
0.0107075 -0.0104178 0.0155066 0.020135 -0.0106972 0.0152489 -0.00088254 -0.0083535 0.0156522 
0.00450799 -0.00875778 0.0158172 -0.00515729 -0.00708521 0.0163282 0.00695685 -0.00636324 0.0157456 
0.00996765 -0.00560825 0.0152363 -0.00459424 -0.00310115 0.0164534 0.000269919 -0.00253987 0.0153906 
0.0139483 -0.00476567 0.0160248 0.0194432 -0.00398836 0.0155741 0.0226114 -0.00453092 0.0163038 
-0.00723867 -0.00161703 0.0154432 0.0293025 -0.00224623 0.0155147 0.0105373 -0.013162 0.0181225 
0.0150534 -0.0126471 0.0171493 0.00263912 -0.0118 0.0191707 0.00171744 -0.00900392 0.0178952 
0.00951497 -0.0080642 0.0171234 0.012606 -0.00794626 0.0187032 0.0165476 -0.00889946 0.0183785 
0.0216972 -0.00880215 0.0187216 0.00252443 -0.00506457 0.017048 0.0245803 -0.00726984 0.0176492 
-0.00723029 -0.00435769 0.0173359 0.00725789 -0.00349915 0.0170002 0.017108 -0.00300195 0.0180568 
0.0266755 -0.00272967 0.0188824 -0.0020623 -0.0018087 0.0180243 0.00226019 -0.00241906 0.0191739 
0.0137614 -0.00222457 0.018274 0.0226179 -0.0016597 0.0174042 0.00968051 -0.0133938 0.0211237 
-0.021773 -0.0117258 0.0298199 0.00620913 -0.0114518 0.0199639 0.0129948 -0.0124193 0.0200773 
0.011493 -0.00983807 0.0216162 0.0198704 -0.00990055 0.0216119 0.0240832 -0.00862879 0.0211736 
-0.00583245 -0.00628172 0.0192594 -0.00237281 -0.00745794 0.0201951 0.000554968 -0.0052981 0.0204736 
0.00378837 -0.00716791 0.019881 0.00668328 -0.0057114 0.0195229 -0.00811056 -0.00275725 0.0198868 
0.00976868 -0.0038265 0.019245 -0.00109251 -0.00203691 0.0210047 0.0160463 -0.00162992 0.0212878 
0.0298767 -0.00217891 0.0199247 -0.000353447 -0.0106154 0.0224167 0.0175912 -0.0121567 0.0217014 
0.0135313 -0.00754705 0.0217639 0.0201626 -0.00670628 0.0223602 -0.005487 -0.00451522 0.0224026 
0.00933726 -0.00412522 0.0223122 0.0268537 -0.00447958 0.0217805 0.00414641 -0.00186365 0.0223445 
0.0206692 -0.0022492 0.0224118 -0.00154334 -0.0101732 0.0382092 0.00349919 -0.0102358 0.0370624 
0.00706869 -0.0124446 0.0376026 0.0064568 -0.00768496 0.0379791 0.011844 -0.00976446 0.0379171 
0.0158248 -0.00806689 0.0385996 0.0219084 -0.00938161 0.0375581 0.00349982 -0.0070736 0.0381115 
0.0134513 -0.00572242 0.0375247 0.01988 -0.00658548 0.0373272 -0.0055848 -0.00262286 0.0371225 
0.00446161 -0.0026273 0.0373657 0.00839111 -0.00467737 0.0370379 0.0112205 -0.00349384 0.0380887 
0.0285673 -0.0043284 0.0371473 0.019515 -0.00186515 0.0370252 0.0110937 -0.0129354 0.0389626 
0.0137241 -0.0100998 0.0404249 0.016809 -0.0109745 0.0395415 0.00600125 -0.00958303 0.0407908 
0.00936901 -0.00899664 0.0410953 0.0183862 -0.00838178 0.0404354 -0.00705797 -0.00547328 0.0391839 
-0.00367241 -0.00516981 0.0394091 0.00663578 -0.00522061 0.0402954 0.015608 -0.00627634 0.0412382 
0.0200825 -0.00540089 0.0402671 0.0227121 -0.00706899 0.0398325 0.0271361 -0.00566692 0.0394922 
-0.00978838 -0.002504 0.0389003 -0.000521577 -0.00334463 0.0400079 0.00836173 -0.00282971 0.0394288 
0.0245364 -0.00360176 0.0389166 -0.00569476 -0.00203973 0.0410386 0.0150257 -0.00243068 0.04046 
0.0272796 -0.00218533 0.0395241 0.0041859 -0.0127503 0.0431899 0.00654792 -0.0132181 0.0413842 
0.0103648 -0.0132939 0.0423457 -0.00376229 -0.00833338 0.0427861 0.000578021 -0.00905996 0.0416281 
0.0139207 -0.00880097 0.0436806 0.0216941 -0.00991844 0.0426805 -0.000430001 -0.00660907 0.0430809 
0.00287227 -0.0062379 0.0418754 0.00755183 -0.00643588 0.0436382 -0.00661758 -0.00498749 0.0423447 
-0.00229182 -0.00409767 0.042456 0.00639831 -0.00258572 0.0433831 0.0110749 -0.00257683 0.0430013 
0.0161083 -0.00401193 0.0431601 0.0233522 -0.00458587 0.0424137 0.0286865 -0.00314983 0.0427175 
-0.00961872 -0.00207077 0.0432744 0.00163857 -0.00168436 0.0428152 0.0196131 -0.00227081 0.0417856 
0.0250395 -0.00175307 0.0429242 0.00692926 -0.010494 0.0440172 0.00231845 -0.00865902 0.0440936 
0.0103748 -0.00771657 0.0440163 -0.00508191 -0.000124124 0.00271179 -0.00375215 0.00216403 0.00159699 
0.00675355 0.000292759 0.00193682 0.0159166 0.00150089 0.0015399 0.0209605 0.00186467 0.00237285 
0.0343133 0.00231773 0.00253594 0.0361222 0.000117534 0.00229479 0.038881 0.000621953 0.00172163 
-0.00579495 0.00416097 0.00151897 0.0243484 0.00350302 0.00201672 0.0370943 0.00279895 0.00215701 
-0.00647104 0.00693138 0.00185621 0.000858664 0.00596329 0.00180192 0.0115278 0.00710181 0.00153712 
0.0134144 0.00494778 0.00180266 0.0180612 0.00615585 0.00239669 0.0330278 0.0076883 0.00207869 
0.034155 0.00515874 0.00276149 0.00141074 0.00874652 0.00149191 0.00905904 0.00863697 0.00148968 
0.011571 0.00994807 0.00151234 -0.00967656 0.0122614 0.00194648 -0.00355855 0.0101855 0.00237493 
-0.000860752 0.0104936 0.00148208 0.00365379 0.0102298 0.00239814 0.00636428 0.0109121 0.00177585 
0.00917097 0.0115039 0.00170346 0.0140843 0.0112131 0.00199286 0.0191434 0.0119545 0.00256385 
0.0238073 0.0115321 0.00238012 0.0262091 0.010087 0.00182939 0.0290014 0.0105834 0.00148399 
-0.00903929 0.0150416 0.00176838 0.00437215 0.0129347 0.00202804 0.00962553 0.0143159 0.00201138 
0.0167759 0.0132999 0.00174932 0.0210414 0.0140457 0.00251887 0.0238276 0.0143897 0.00208176 
0.026259 0.0129228 0.00195314 0.0286448 0.0144127 0.00160279 0.0308662 0.0126706 0.00200929 
-0.0137618 0.0151473 0.00155319 0.00251911 0.0150406 0.00156755 0.00844911 0.0169279 0.00197422 
0.0146726 0.0152255 0.00192255 0.0173794 0.0160872 0.0018702 0.0200981 0.016728 0.00233355 
0.0239814 0.0172277 0.0017236 0.0267596 0.0165552 0.00184376 -0.00994477 0.0176788 0.00238968 
-0.00164458 0.0189463 0.00243129 0.00281754 0.0178726 0.00158829 0.00521987 0.0194155 0.00148582 
0.010482 0.0189475 0.00185317 0.0247682 0.019944 0.00148526 -0.00927707 0.0204015 0.00184084 
[...]
POINT_DATA 1000
FIELD FieldData 7
id 1 1000 int
18 49 25 280 262 301 3 266 22 
12 290 53 36 282 263 277 37 46 
48 21 9 32 302 17 2 268 16 
50 30 15 39 141 38 33 7 19 
274 247 43 235 104 138 164 309 24 
10 41 1 254 52 297 256 285 56 
27 58 298 251 295 13 45 294 264 
260 83 259 270 253 287 31 4 281 
305 34 40 29 304 28 47 308 44 
8 5 42 273 289 261 292 65 51 
291 205 54 303 11 35 67 14 279 
26 252 267 296 272 306 258 257 278 
284 23 293 255 283 265 275 300 269 
307 276 158 299 288 286 271 20 531 
520 501 524 548 549 528 532 506 536 
517 556 512 529 554 558 504 515 508 
552 526 518 521 534 503 507 545 513 
527 541 510 557 547 551 57 535 544 
555 546 533 502 525 522 540 542 519 
539 505 550 511 509 543 516 538 523 
553 530 537 514 761 769 789 776 774 
797 803 796 758 800 806 764 783 793 
788 790 766 802 782 787 755 786 784 
757 762 791 772 763 767 804 753 799 
752 771 754 807 775 810 773 768 765 
795 751 778 798 808 794 759 756 760 
780 785 801 792 779 770 809 805 781 
777 191 102 6 55 186 218 136 248 
199 131 160 89 429 112 314 331 433 
234 69 63 206 227 237 118 243 123 
116 211 238 157 130 149 175 204 84 
62 155 203 165 80 169 178 183 472 
154 249 179 222 90 194 310 120 87 
332 208 86 127 182 110 64 430 105 
376 404 75 231 399 159 124 184 77 
103 195 484 388 79 98 236 360 151 
177 148 239 156 392 139 192 200 91 
958 416 107 397 323 113 378 482 72 
66 380 214 209 389 161 344 202 242 
328 363 232 359 423 94 212 445 413 
119 384 425 455 101 85 122 73 213 
189 147 99 92 317 229 246 145 220 
241 180 352 448 142 185 78 223 88 
198 61 100 408 166 428 415 93 163 
492 346 427 471 387 146 59 221 240 
201 385 483 394 82 126 245 196 117 
226 106 412 495 379 465 347 435 140 
436 97 407 366 315 464 188 174 341 
451 167 197 463 225 418 402 60 390 
447 349 367 437 500 162 176 439 125 
224 153 76 121 219 81 459 487 329 
496 143 370 431 95 114 233 111 339 
457 369 434 132 477 383 357 393 499 
449 486 468 129 68 365 330 96 452 
450 454 382 338 335 398 460 419 313 
173 172 135 355 362 250 333 475 128 
498 210 152 70 466 470 456 343 476 
350 311 473 215 150 181 342 396 337 
340 490 74 137 244 462 368 461 373 
411 377 420 230 371 386 409 406 115 
414 481 474 391 395 444 336 109 467 
319 318 400 322 364 479 485 491 432 
356 422 71 442 170 228 381 372 334 
458 326 353 441 320 134 168 190 207 
193 469 440 417 316 438 453 493 410 
354 217 108 403 489 358 446 361 405 
497 424 494 321 480 327 312 348 375 
426 325 401 443 374 345 421 488 324 
478 216 171 144 351 133 187 679 698 
703 695 747 655 678 566 670 563 656 
727 593 619 718 625 707 606 682 654 
650 599 624 700 713 742 585 598 743 
672 691 586 590 674 576 728 702 618 
604 734 616 638 696 574 735 571 613 
640 749 649 642 632 685 647 711 645 
724 579 738 607 591 584 736 561 562 
683 610 721 710 723 622 634 748 715 
578 570 714 739 697 722 581 595 575 
662 644 559 628 750 740 560 592 631 
686 564 690 693 652 573 603 577 709 
601 648 675 688 633 701 596 673 629 
659 730 680 589 611 664 669 582 653 
658 609 657 626 677 671 630 637 692 
719 605 617 745 568 583 636 614 660 
588 667 594 725 600 587 621 741 597 
643 620 651 608 602 708 615 746 639 
681 668 565 572 732 689 717 731 744 
627 684 705 666 569 726 580 706 737 
646 733 694 676 665 712 687 716 661 
720 623 635 641 729 699 612 704 567 
663 876 959 927 981 992 862 961 915 
890 835 855 843 901 979 871 856 924 
917 912 859 883 866 951 914 867 897 
976 982 828 948 968 902 973 834 970 
857 905 993 852 893 987 988 875 885 
818 925 952 811 989 906 821 860 922 
945 929 921 967 916 833 841 837 847 
930 935 936 814 910 813 863 812 953 
943 870 954 950 934 824 966 957 977 
949 881 963 933 836 816 845 889 868 
822 965 819 947 940 986 827 858 978 
874 848 898 839 878 939 919 932 974 
825 896 886 997 984 971 907 840 900 
931 911 937 864 817 985 964 926 895 
975 849 842 990 873 851 969 983 823 
920 908 846 815 894 1000 960 826 844 
904 996 923 838 829 880 944 831 865 
899 854 980 830 972 887 892 879 913 
991 850 853 861 946 928 909 877 941 
869 942 882 891 903 998 872 888 955 
938 884 995 956 994 918 820 999 832 
962 
type 1 1000 int
1 1 1 1 1 1 1 1 1 
1 1 1 1 1 1 1 1 1 
1 1 1 1 1 1 1 1 1 
1 1 1 1 1 1 1 1 1 
1 1 1 1 1 1 1 1 1 
1 1 1 1 1 1 1 1 1 
1 1 1 1 1 1 1 1 1 
1 1 1 1 1 1 1 1 1 
1 1 1 1 1 1 1 1 1 
1 1 1 1 1 1 1 1 1 
1 1 1 1 1 1 1 1 1 
1 1 1 1 1 1 1 1 1 
1 1 1 1 1 1 1 1 1 
1 1 1 1 1 1 1 1 1 
1 1 1 1 1 1 1 1 1 
1 1 1 1 1 1 1 1 1 
1 1 1 1 1 1 1 1 1 
1 1 1 1 1 1 1 1 1 
1 1 1 1 1 1 1 1 1 
1 1 1 1 1 1 1 1 1 
1 1 1 1 1 1 1 1 1 
1 1 1 1 1 1 1 1 1 
1 1 1 1 1 1 1 1 1 
1 1 1 1 1 1 1 1 1 
1 1 1 1 1 1 1 1 1 
1 1 1 1 1 1 1 1 1 
1 1 1 1 1 1 1 1 1 
1 1 1 1 1 1 1 1 1 
1 1 1 1 1 1 1 1 1 
1 1 1 1 1 1 1 1 1 
1 1 1 1 1 1 1 1 1 
1 1 1 1 1 1 1 1 1 
1 1 1 1 1 1 1 1 1 
1 1 1 1 1 1 1 1 1 
1 1 1 1 1 1 1 1 1 
1 1 1 1 1 1 1 1 1 
1 1 1 1 1 1 1 1 1 
1 1 1 1 1 1 1 1 1 
1 1 1 1 1 1 1 1 1 
1 1 1 1 1 1 1 1 1 
1 1 1 1 1 1 1 1 1 
1 1 1 1 1 1 1 1 1 
1 1 1 1 1 1 1 1 1 
1 1 1 1 1 1 1 1 1 
1 1 1 1 1 1 1 1 1 
1 1 1 1 1 1 1 1 1 
1 1 1 1 1 1 1 1 1 
1 1 1 1 1 1 1 1 1 
1 1 1 1 1 1 1 1 1 
1 1 1 1 1 1 1 1 1 
1 1 1 1 1 1 1 1 1 
1 1 1 1 1 1 1 1 1 
1 1 1 1 1 1 1 1 1 
1 1 1 1 1 1 1 1 1 
1 1 1 1 1 1 1 1 1 
1 1 1 1 1 1 1 1 1 
1 1 1 1 1 1 1 1 1 
1 1 1 1 1 1 1 1 1 
1 1 1 1 1 1 1 1 1 
1 1 1 1 1 1 1 1 1 
1 1 1 1 1 1 1 1 1 
1 1 1 1 1 1 1 1 1 
1 1 1 1 1 1 1 1 1 
1 1 1 1 1 1 1 1 1 
1 1 1 1 1 1 1 1 1 
1 1 1 1 1 1 1 1 1 
1 1 1 1 1 1 1 1 1 
1 1 1 1 1 1 1 1 1 
1 1 1 1 1 1 1 1 1 
1 1 1 1 1 1 1 1 1 
1 1 1 1 1 1 1 1 1 
1 1 1 1 1 1 1 1 1 
1 1 1 1 1 1 1 1 1 
1 1 1 1 1 1 1 1 1 
1 1 1 1 1 1 1 1 1 
1 1 1 1 1 1 1 1 1 
1 1 1 1 1 1 1 1 1 
1 1 1 1 1 1 1 1 1 
1 1 1 1 1 1 1 1 1 
1 1 1 1 1 1 1 1 1 
1 1 1 1 1 1 1 1 1 
1 1 1 1 1 1 1 1 1 
1 1 1 1 1 1 1 1 1 
1 1 1 1 1 1 1 1 1 
1 1 1 1 1 1 1 1 1 
1 1 1 1 1 1 1 1 1 
1 1 1 1 1 1 1 1 1 
1 1 1 1 1 1 1 1 1 
1 1 1 1 1 1 1 1 1 
1 1 1 1 1 1 1 1 1 
1 1 1 1 1 1 1 1 1 
1 1 1 1 1 1 1 1 1 
1 1 1 1 1 1 1 1 1 
1 1 1 1 1 1 1 1 1 
1 1 1 1 1 1 1 1 1 
1 1 1 1 1 1 1 1 1 
1 1 1 1 1 1 1 1 1 
1 1 1 1 1 1 1 1 1 
1 1 1 1 1 1 1 1 1 
1 1 1 1 1 1 1 1 1 
1 1 1 1 1 1 1 1 1 
1 1 1 1 1 1 1 1 1 
1 1 1 1 1 1 1 1 1 
1 1 1 1 1 1 1 1 1 
1 1 1 1 1 1 1 1 1 
1 1 1 1 1 1 1 1 1 
1 1 1 1 1 1 1 1 1 
1 1 1 1 1 1 1 1 1 
1 1 1 1 1 1 1 1 1 
1 1 1 1 1 1 1 1 1 
1 1 1 1 1 1 1 1 1 
1 
i 3 1000 int
0 0 0 0 0 0 0 0 0 
0 0 0 0 0 0 0 0 0 
0 0 0 0 0 0 0 0 0 
0 0 0 0 0 0 0 0 0 
0 0 0 0 0 0 0 0 0 
0 0 0 0 0 0 0 0 0 
0 0 0 0 0 0 0 0 0 
0 0 0 0 0 0 0 0 0 
0 0 0 0 0 0 0 0 0 
0 0 0 0 0 0 0 0 0 
0 0 0 0 0 0 0 0 0 
0 0 0 0 0 0 0 0 0 
0 0 0 0 0 0 0 0 0 
0 0 0 0 0 0 0 0 0 
0 0 0 0 0 0 0 0 0 
0 0 0 0 0 0 0 0 0 
0 0 0 0 0 0 0 0 0 
0 0 0 0 0 0 0 0 0 
0 0 0 0 0 0 0 0 0 
0 0 0 0 0 0 0 0 0 
0 0 0 0 0 0 0 0 0 
0 0 0 0 0 0 0 0 0 
0 0 0 0 0 0 0 0 0 
0 0 0 0 0 0 0 0 0 
0 0 0 0 0 0 0 0 0 
0 0 0 0 0 0 0 0 0 
0 0 0 0 0 0 0 0 0 
0 0 0 0 0 0 0 0 0 
0 0 0 0 0 0 0 0 0 
0 0 0 0 0 0 0 0 0 
0 0 0 0 0 0 0 0 0 
0 0 0 0 0 0 0 0 0 
0 0 0 0 0 0 0 0 0 
0 0 0 0 0 0 0 0 0 
0 0 0 0 0 0 0 0 0 
0 0 0 0 0 0 0 0 0 
0 0 0 0 0 0 0 0 0 
0 0 0 0 0 0 0 0 0 
0 0 0 0 0 0 0 0 0 
0 0 0 0 0 0 0 0 0 
0 0 0 0 0 0 0 0 0 
0 0 0 0 0 0 0 0 0 
0 0 0 0 0 0 0 0 0 
0 0 0 0 0 0 0 0 0 
0 0 0 0 0 0 0 0 0 
0 0 0 0 0 0 0 0 0 
0 0 0 0 0 0 0 0 0 
0 0 0 0 0 0 0 0 0 
0 0 0 0 0 0 0 0 0 
0 0 0 0 0 0 0 0 0 
0 0 0 0 0 0 0 0 0 
0 0 0 0 0 0 0 0 0 
0 0 0 0 0 0 0 0 0 
0 0 0 0 0 0 0 0 0 
0 0 0 0 0 0 0 0 0 
0 0 0 0 0 0 0 0 0 
0 0 0 0 0 0 0 0 0 
0 0 0 0 0 0 0 0 0 
0 0 0 0 0 0 0 0 0 
0 0 0 0 0 0 0 0 0 
0 0 0 0 0 0 0 0 0 
0 0 0 0 0 0 0 0 0 
0 0 0 0 0 0 0 0 0 
0 0 0 0 0 0 0 0 0 
0 0 0 0 0 0 0 0 0 
0 0 0 0 0 0 0 0 0 
0 0 0 0 0 0 0 0 0 
0 0 0 0 0 0 0 0 0 
0 0 0 0 0 0 0 0 0 
0 0 0 0 0 0 0 0 0 
0 0 0 0 0 0 0 0 0 
0 0 0 0 0 0 0 0 0 
0 0 0 0 0 0 0 0 0 
0 0 0 0 0 0 0 0 0 
0 0 0 0 0 0 0 0 0 
0 0 0 0 0 0 0 0 0 
0 0 0 0 0 0 0 0 0 
0 0 0 0 0 0 0 0 0 
0 0 0 0 0 0 0 0 0 
0 0 0 0 0 0 0 0 0 
0 0 0 0 0 0 0 0 0 
0 0 0 0 0 0 0 0 0 
0 0 0 0 0 0 0 0 0 
0 0 0 0 0 0 0 0 0 
0 0 0 0 0 0 0 0 0 
0 0 0 0 0 0 0 0 0 
0 0 0 0 0 0 0 0 0 
0 0 0 0 0 0 0 0 0 
0 0 0 0 0 0 0 0 0 
0 0 0 0 0 0 0 0 0 
0 0 0 0 0 0 0 0 0 
0 0 0 0 0 0 0 0 0 
0 0 0 0 0 0 0 0 0 
0 0 0 0 0 0 0 0 0 
0 0 0 0 0 0 0 0 0 
0 0 0 0 0 0 0 0 0 
0 0 0 0 0 0 0 0 0 
0 0 0 0 0 0 0 0 0 
0 0 0 0 0 0 0 0 0 
0 0 0 0 0 0 0 0 0 
0 0 0 0 0 0 0 0 0 
0 0 0 0 0 0 0 0 0 
0 0 0 0 0 0 0 0 0 
0 0 0 0 0 0 0 0 0 
0 0 0 0 0 0 0 0 0 
0 0 0 0 0 0 0 0 0 
0 0 0 0 0 0 0 0 0 
0 0 0 0 0 0 0 0 0 
0 0 0 0 0 0 0 0 0 
0 0 0 0 0 0 0 0 0 
0 0 0 0 0 0 0 0 0 
0 0 0 0 0 0 0 0 0 
0 0 0 0 0 0 0 0 0 
0 0 0 0 0 0 0 0 0 
0 0 0 0 0 0 0 0 0 
0 0 0 0 0 0 0 0 0 
0 0 0 0 0 0 0 0 0 
0 0 0 0 0 0 0 0 0 
0 0 0 0 0 0 0 0 0 
0 0 0 0 0 0 0 0 0 
0 0 0 0 0 0 0 0 0 
0 0 0 0 0 0 0 0 0 
0 0 0 0 0 0 0 0 0 
0 0 0 0 0 0 0 0 0 
0 0 0 0 0 0 0 0 0 
0 0 0 0 0 0 0 0 0 
0 0 0 0 0 0 0 0 0 
0 0 0 0 0 0 0 0 0 
0 0 0 0 0 0 0 0 0 
0 0 0 0 0 0 0 0 0 
0 0 0 0 0 0 0 0 0 
0 0 0 0 0 0 0 0 0 
0 0 0 0 0 0 0 0 0 
0 0 0 0 0 0 0 0 0 
0 0 0 0 0 0 0 0 0 
0 0 0 0 0 0 0 0 0 
0 0 0 0 0 0 0 0 0 
0 0 0 0 0 0 0 0 0 
0 0 0 0 0 0 0 0 0 
0 0 0 0 0 0 0 0 0 
0 0 0 0 0 0 0 0 0 
0 0 0 0 0 0 0 0 0 
0 0 0 0 0 0 0 0 0 
0 0 0 0 0 0 0 0 0 
0 0 0 0 0 0 0 0 0 
0 0 0 0 0 0 0 0 0 
0 0 0 0 0 0 0 0 0 
0 0 0 0 0 0 0 0 0 
0 0 0 0 0 0 0 0 0 
0 0 0 0 0 0 0 0 0 
0 0 0 0 0 0 0 0 0 
0 0 0 0 0 0 0 0 0 
0 0 0 0 0 0 0 0 0 
0 0 0 0 0 0 0 0 0 
0 0 0 0 0 0 0 0 0 
0 0 0 0 0 0 0 0 0 
0 0 0 0 0 0 0 0 0 
0 0 0 0 0 0 0 0 0 
0 0 0 0 0 0 0 0 0 
0 0 0 0 0 0 0 0 0 
0 0 0 0 0 0 0 0 0 
0 0 0 0 0 0 0 0 0 
0 0 0 0 0 0 0 0 0 
0 0 0 0 0 0 0 0 0 
0 0 0 0 0 0 0 0 0 
0 0 0 0 0 0 0 0 0 
0 0 0 0 0 0 0 0 0 
0 0 0 0 0 0 0 0 0 
0 0 0 0 0 0 0 0 0 
0 0 0 0 0 0 0 0 0 
0 0 0 0 0 0 0 0 0 
0 0 0 0 0 0 0 0 0 
0 0 0 0 0 0 0 0 0 
0 0 0 0 0 0 0 0 0 
0 0 0 0 0 0 0 0 0 
0 0 0 0 0 0 0 0 0 
0 0 0 0 0 0 0 0 0 
0 0 0 0 0 0 0 0 0 
0 0 0 0 0 0 0 0 0 
0 0 0 0 0 0 0 0 0 
0 0 0 0 0 0 0 0 0 
0 0 0 0 0 0 0 0 0 
0 0 0 0 0 0 0 0 0 
0 0 0 0 0 0 0 0 0 
0 0 0 0 0 0 0 0 0 
0 0 0 0 0 0 0 0 0 
0 0 0 0 0 0 0 0 0 
0 0 0 0 0 0 0 0 0 
0 0 0 0 0 0 0 0 0 
0 0 0 0 0 0 0 0 0 
0 0 0 0 0 0 0 0 0 
0 0 0 0 0 0 0 0 0 
0 0 0 0 0 0 0 0 0 
0 0 0 0 0 0 0 0 0 
0 0 0 0 0 0 0 0 0 
0 0 0 0 0 0 0 0 0 
0 0 0 0 0 0 0 0 0 
0 0 0 0 0 0 0 0 0 
0 0 0 0 0 0 0 0 0 
0 0 0 0 0 0 0 0 0 
0 0 0 0 0 0 0 0 0 
0 0 0 0 0 0 0 0 0 
0 0 0 0 0 0 0 0 0 
0 0 0 0 0 0 0 0 0 
0 0 0 0 0 0 0 0 0 
0 0 0 0 0 0 0 0 0 
0 0 0 0 0 0 0 0 0 
0 0 0 0 0 0 0 0 0 
0 0 0 0 0 0 0 0 0 
0 0 0 0 0 0 0 0 0 
0 0 0 0 0 0 0 0 0 
0 0 0 0 0 0 0 0 0 
0 0 0 0 0 0 0 0 0 
0 0 0 0 0 0 0 0 0 
0 0 0 0 0 0 0 0 0 
0 0 0 0 0 0 0 0 0 
0 0 0 0 0 0 0 0 0 
0 0 0 0 0 0 0 0 0 
0 0 0 0 0 0 0 0 0 
0 0 0 0 0 0 0 0 0 
0 0 0 0 0 0 0 0 0 
0 0 0 0 0 0 0 0 0 
0 0 0 0 0 0 0 0 0 
0 0 0 0 0 0 0 0 0 
0 0 0 0 0 0 0 0 0 
0 0 0 0 0 0 0 0 0 
0 0 0 0 0 0 0 0 0 
0 0 0 0 0 0 0 0 0 
0 0 0 0 0 0 0 0 0 
0 0 0 0 0 0 0 0 0 
0 0 0 0 0 0 0 0 0 
0 0 0 0 0 0 0 0 0 
0 0 0 0 0 0 0 0 0 
0 0 0 0 0 0 0 0 0 
0 0 0 0 0 0 0 0 0 
0 0 0 0 0 0 0 0 0 
0 0 0 0 0 0 0 0 0 
0 0 0 0 0 0 0 0 0 
0 0 0 0 0 0 0 0 0 
0 0 0 0 0 0 0 0 0 
0 0 0 0 0 0 0 0 0 
0 0 0 0 0 0 0 0 0 
0 0 0 0 0 0 0 0 0 
0 0 0 0 0 0 0 0 0 
0 0 0 0 0 0 0 0 0 
0 0 0 0 0 0 0 0 0 
0 0 0 0 0 0 0 0 0 
0 0 0 0 0 0 0 0 0 
0 0 0 0 0 0 0 0 0 
0 0 0 0 0 0 0 0 0 
0 0 0 0 0 0 0 0 0 
0 0 0 0 0 0 0 0 0 
0 0 0 0 0 0 0 0 0 
0 0 0 0 0 0 0 0 0 
0 0 0 0 0 0 0 0 0 
0 0 0 0 0 0 0 0 0 
0 0 0 0 0 0 0 0 0 
0 0 0 0 0 0 0 0 0 
0 0 0 0 0 0 0 0 0 
0 0 0 0 0 0 0 0 0 
0 0 0 0 0 0 0 0 0 
0 0 0 0 0 0 0 0 0 
0 0 0 0 0 0 0 0 0 
0 0 0 0 0 0 0 0 0 
0 0 0 0 0 0 0 0 0 
0 0 0 0 0 0 0 0 0 
0 0 0 0 0 0 0 0 0 
0 0 0 0 0 0 0 0 0 
0 0 0 0 0 0 0 0 0 
0 0 0 0 0 0 0 0 0 
0 0 0 0 0 0 0 0 0 
0 0 0 0 0 0 0 0 0 
0 0 0 0 0 0 0 0 0 
0 0 0 0 0 0 0 0 0 
0 0 0 0 0 0 0 0 0 
0 0 0 0 0 0 0 0 0 
0 0 0 0 0 0 0 0 0 
0 0 0 0 0 0 0 0 0 
0 0 0 0 0 0 0 0 0 
0 0 0 0 0 0 0 0 0 
0 0 0 0 0 0 0 0 0 
0 0 0 0 0 0 0 0 0 
0 0 0 0 0 0 0 0 0 
0 0 0 0 0 0 0 0 0 
0 0 0 0 0 0 0 0 0 
0 0 0 0 0 0 0 0 0 
0 0 0 0 0 0 0 0 0 
0 0 0 0 0 0 0 0 0 
0 0 0 0 0 0 0 0 0 
0 0 0 0 0 0 0 0 0 
0 0 0 0 0 0 0 0 0 
0 0 0 0 0 0 0 0 0 
0 0 0 0 0 0 0 0 0 
0 0 0 0 0 0 0 0 0 
0 0 0 0 0 0 0 0 0 
0 0 0 0 0 0 0 0 0 
0 0 0 0 0 0 0 0 0 
0 0 0 0 0 0 0 0 0 
0 0 0 0 0 0 0 0 0 
0 0 0 0 0 0 0 0 0 
0 0 0 0 0 0 0 0 0 
0 0 0 0 0 0 0 0 0 
0 0 0 0 0 0 0 0 0 
0 0 0 0 0 0 0 0 0 
0 0 0 0 0 0 0 0 0 
0 0 0 0 0 0 0 0 0 
0 0 0 0 0 0 0 0 0 
0 0 0 0 0 0 0 0 0 
0 0 0 0 0 0 0 0 0 
0 0 0 0 0 0 0 0 0 
0 0 0 0 0 0 0 0 0 
0 0 0 0 0 0 0 0 0 
0 0 0 0 0 0 0 0 0 
0 0 0 0 0 0 0 0 0 
0 0 0 0 0 0 0 0 0 
0 0 0 0 0 0 0 0 0 
0 0 0 0 0 0 0 0 0 
0 0 0 0 0 0 0 0 0 
0 0 0 0 0 0 0 0 0 
0 0 0 0 0 0 0 0 0 
0 0 0 0 0 0 0 0 0 
0 0 0 0 0 0 0 0 0 
0 0 0 0 0 0 0 0 0 
0 0 0 0 0 0 0 0 0 
0 0 0 0 0 0 0 0 0 
0 0 0 0 0 0 0 0 0 
0 0 0 0 0 0 0 0 0 
0 0 0 0 0 0 0 0 0 
0 0 0 0 0 0 0 0 0 
0 0 0 0 0 0 0 0 0 
0 0 0 0 0 0 0 0 0 
0 0 0 0 0 0 0 0 0 
0 0 0 0 0 0 0 0 0 
0 0 0 
v 3 1000 double
0.082251576895 -0.57142760234 -0.027857430321 0.030431118368 0.015445682092 -0.0046351537648 0.019540689745 -0.0065725884286 -0.001938719101 
-0.0087204319818 0.068780919998 0.00038955101074 -0.11409229758 0.15905415332 0.13848792825 -0.15319189438 0.14986225881 0.11957459422 
-0.017403085813 0.10708456164 -0.12584048859 0.048451183212 -0.017412726645 0.001222113546 0.034716014937 -0.033102103776 0.030576186496 
-0.014918410441 -0.0018516572568 0.13923652256 0.008960236773 -0.0023615996553 0.015893610074 -0.0011105102277 0.051292383661 0.018136990773 
0.019691628222 0.0085723936745 -0.042145536844 -0.0077463831906 -0.021800323846 0.00063493416385 0.045904708679 -0.032099802899 -0.030942128112 
-0.058639268984 -0.0019151367601 0.070815262973 -0.034054656759 0.012419668209 0.018708963372 -0.047747474418 0.015749801405 -0.00018317096677 
-0.027171715776 0.024570507783 -0.015913056842 -0.050018012758 -0.017245874487 0.048666463613 -0.03142969908 -0.03063487641 0.045858968066 
-0.049307575079 -0.025956987894 0.0014619580892 -0.0050937233228 0.014938608512 0.01551348924 -0.00020234785852 0.0066309014365 0.011902097054 
-0.015621413699 -0.0047500446094 0.0048773707723 0.041817891141 -0.02036973351 0.014824830191 0.048458786814 -0.00033622577014 -0.02147539548 
0.0011079715846 0.019040045805 0.016776574248 -0.034077985314 0.017519038577 0.020550951888 -0.033001540467 0.027296294275 0.033285891778 
-0.01348689825 -0.021404235164 -0.0021943240231 -0.01059683326 -0.058554248182 0.036921498088 0.00072096365981 0.00018745855666 -0.00053410724322 
-0.013912607584 0.027279093441 0.023896963247 -0.016054610944 0.017440531069 0.0081698132467 -0.012792016305 0.017072032407 -0.0023889812039 
-0.021873682997 -0.075014648044 0.013820556261 0.023866621881 -0.047061094704 0.025616534273 -7.6529581163e-05 -0.043286787252 0.027371760932 
0.02151808351 0.002576276801 0.0376848033 0.019534918086 -0.015704137158 0.025137627634 0.0081696475201 0.01476699139 0.017768932331 
-0.0010414339629 0.0052236199118 -0.010048275337 -0.021013328592 -0.11239057797 -0.02288362613 0.19420403955 -0.50152243546 -0.13162270685 
-0.014041033996 -0.57967548848 -0.13220458266 0.020049592469 -0.5831297344 -0.21555627221 -0.0017272123767 0.0031032669046 -0.025816440661 
0.020495051225 0.031440958366 -0.0030927902929 0.012095731428 0.017783602249 0.011306731889 0.051742400235 -0.012782527966 -0.019499216408 
-3.0635615544e-05 0.035672148436 0.0061234440613 -0.18721955855 0.098745764013 -0.13404599197 -0.028670166333 0.023003320619 0.014041672541 
0.013025800937 0.072321752717 -0.029047102504 -0.0096708934057 -0.025428932522 -0.0042639348797 0.04303996816 0.028902567782 0.0078327148858 
-0.048868154465 -0.010951290854 0.067943211284 -0.025134337771 0.017528854112 0.02117041304 -0.014605207647 0.031578060877 0.010116575077 
-0.02320584164 0.018665155739 -0.0040416529361 -0.018448214576 0.026761752499 -0.019219238455 -0.035952700536 0.018228214456 0.025880788664 
-0.021644639953 0.027016807304 0.03774061969 -0.13347861285 -0.087835898186 0.083372912554 -0.032825754502 -0.029288844446 -0.012105945535 
-0.02257041505 -0.017191073618 -0.0098100119853 -0.0086210671527 -0.016792143081 0.018459634188 0.0091769193937 -0.0016535226331 0.010339321844 
-0.0036546157905 0.026887249255 0.02450471062 -0.046033839112 0.031635579187 -0.013474641715 -0.034692289445 0.019336686647 0.033080629131 
-0.037698023509 0.029066256578 -0.028245541474 -0.029382961856 -0.025940948929 0.031822104979 -0.23529937166 -0.10952615678 -0.024567790893 
-0.49511604273 0.1159951481 -0.2081982575 -0.034389619601 -0.021021358466 0.011704321631 -0.014489081444 -0.023243271774 0.01726865338 
-0.003496436165 -0.043767910393 0.040482825543 0.0042993494599 0.0010504145666 0.024519053833 0.023686461212 -0.0075352479993 0.017074289835 
-0.0050029565242 0.043469264801 0.013225765865 -0.0085214960462 0.021573047333 0.024693087788 -0.0004411856184 0.018400629135 0.024762461185 
-0.0066426020196 0.018385584602 -0.0013481304793 -0.0045027980301 0.021300313881 -0.00035219411854 0.001005705194 -0.011550331949 0.020705873232 
0.00161929006 -0.02988747283 -0.098902280581 -0.044562911204 -0.080733552564 0.040410029633 -0.33957435581 -0.12520944339 -0.038271791341 
-0.03449651493 0.023494226318 0.058683392052 -0.010127737572 -0.022442367322 0.0094415788204 -0.01108226917 -0.016208861797 0.027160820861 
0.0045691310885 0.018381943551 0.017579637427 0.0053980469612 -0.030918250971 -0.0086950519084 0.039028031575 0.00066548976911 0.020609182284 
0.012294560427 0.016608491516 0.027622816761 -0.0062630688474 0.015524545329 0.0044050131794 0.084704765161 -0.11196983252 -0.1582105591 
0.019780604591 -0.0064394566188 0.0011289465771 -0.010065631439 0.023328359904 0.029560861224 -0.0027441325997 0.0073929495672 0.037401329931 
-0.0079954847654 0.041120020275 0.024173196329 -0.035509909391 -0.017475083358 -0.099578607858 0.067414803753 0.19320093643 -0.13782484865 
0.10107209598 0.011829668348 0.017085363898 -0.01882583574 0.027686723754 0.015562209124 -0.0005654972218 0.026345450737 -0.01988034431 
-0.065166661462 0.03700145891 0.031921877819 -0.26316595282 -0.039195987371 -0.15358858057 -0.041190862925 -0.013859330752 0.01210138885 
-0.029372986992 -0.020377077838 0.027327366684 0.035386199486 -0.01851866831 0.03394961508 0.030433332419 0.013774728293 0.017965156074 
0.015957392184 0.0042127460531 0.037411310815 0.014979225691 0.061402090748 0.027260966683 -0.0022679255231 0.045407336309 0.021965660954 
-0.066005982436 0.029226832855 0.0092960856798 -0.030261975866 -0.010316619248 0.014725718552 0.051769866049 0.01537141911 0.027176294863 
0.005525214331 0.035729100346 0.014315753196 0.021315749529 0.003135487068 0.013618537441 0.12396055233 -0.047856529629 -0.088296588945 
0.017247949075 -0.034686658086 0.012961281388 -0.45110325361 -0.28775223375 0.0047717835297 0 0 -0.86703095 
0 0 -0.86703095 0 0 -0.86703095 0 0 -0.86703095 
0 0 -0.86703095 0 0 -0.86703095 0 0 -0.86703095 
0 0 -0.86703095 0 0 -0.86703095 0 0 -0.86703095 
0 0 -0.86703095 0 0 -0.86703095 0 0 -0.86703095 
0 0 -0.86703095 0 0 -0.86703095 0 0 -0.86703095 
0 0 -0.86703095 0 0 -0.86703095 0 0 -0.86703095 
0 0 -0.86703095 0 0 -0.86703095 0 0 -0.86703095 
0 0 -0.86703095 0 0 -0.86703095 0 0 -0.86703095 
0 0 -0.86703095 0 0 -0.86703095 0 0 -0.86703095 
0 0 -0.86703095 0 0 -0.86703095 0 0 -0.86703095 
0 0 -0.86703095 0 0 -0.86703095 0 0 -0.86703095 
-0.30762627204 -0.22204188241 0.38556712677 0 0 -0.86703095 0 0 -0.86703095 
0 0 -0.86703095 0 0 -0.86703095 0 0 -0.86703095 
0 0 -0.86703095 0 0 -0.86703095 0 0 -0.86703095 
0 0 -0.86703095 0 0 -0.86703095 0 0 -0.86703095 
0 0 -0.86703095 0 0 -0.86703095 0 0 -0.86703095 
0 0 -0.86703095 0 0 -0.86703095 0 0 -0.86703095 
0 0 -0.86703095 0 0 -0.86703095 0 0 -0.86703095 
0 0 -0.86703095 0 0 -0.86703095 0 0 -0.86703095 
0 0 -0.86703095 0 0 -0.57273095 0 0 -0.57273095 
0 0 -0.57273095 0 0 -0.57273095 0 0 -0.57273095 
0 0 -0.57273095 0 0 -0.57273095 0 0 -0.57273095 
0 0 -0.57273095 0 0 -0.57273095 0 0 -0.57273095 
0 0 -0.57273095 0 0 -0.57273095 0 0 -0.57273095 
0 0 -0.57273095 0 0 -0.57273095 0 0 -0.57273095 
0 0 -0.57273095 0 0 -0.57273095 0 0 -0.57273095 
0 0 -0.57273095 0 0 -0.57273095 0 0 -0.57273095 
0 0 -0.57273095 0 0 -0.57273095 0 0 -0.57273095 
0 0 -0.57273095 0 0 -0.57273095 0 0 -0.57273095 
0 0 -0.57273095 0 0 -0.57273095 0 0 -0.57273095 
0 0 -0.57273095 0 0 -0.57273095 0 0 -0.57273095 