# vtk DataFile Version 4.1
Generated by LIGGGHTS
ASCII
DATASET POLYDATA
POINTS 1000 float
-0.00179962 -0.0165358 0.00274828 0.000873691 -0.0165887 0.0017529 0.00586404 -0.01602 0.00150417 
-0.000604621 -0.0141369 0.00177473 0.00208852 -0.0132417 0.00150035 0.00493565 -0.0133225 0.00170069 
0.00773366 -0.013872 0.00153353 0.0164837 -0.0126352 0.00187922 0.0219014 -0.0128978 0.00148555 
-0.00612484 -0.0117857 0.00151568 0.00239067 -0.0104195 0.00165058 0.00525294 -0.010468 0.00149864 
0.00811605 -0.0104109 0.00152352 0.0109655 -0.0103508 0.00148377 0.0135715 -0.0115145 0.00151516 
0.0192188 -0.0119206 0.00157661 0.0228589 -0.0103742 0.00241955 -0.006415 -0.00757879 0.00148054 
-0.00456593 -0.00954949 0.00236296 -0.000412457 -0.00987448 0.00152505 0.00381627 -0.00797276 0.00160091 
0.00666077 -0.0079784 0.00164308 0.00950353 -0.00789288 0.00150684 0.0123132 -0.00790265 0.00206773 
0.014907 -0.0090074 0.00151386 0.0202465 -0.00930032 0.001962 0.0253246 -0.00906064 0.00185455 
0.0281208 -0.00946344 0.00149502 0.0321715 -0.00790499 0.0015696 -0.0352304 -0.00656596 0.00153147 
-0.032405 -0.00634542 0.00185901 -0.00361907 -0.0069829 0.00152191 -0.000815707 -0.00710984 0.00207692 
0.00798953 -0.00545845 0.00152623 0.0129039 -0.00517042 0.00148816 0.015533 -0.00623828 0.00151242 
0.0180898 -0.00749501 0.00148749 0.0236607 -0.0067503 0.00183131 0.0270468 -0.00680851 0.00151751 
0.0312068 -0.00522132 0.00168626 -0.0339745 -0.003994 0.00149426 -0.000934102 -0.00268027 0.00147658 
0.00626534 -0.00317711 0.00150822 0.0111106 -0.00298319 0.00181326 0.0174774 -0.00416343 0.00149426 
0.0201668 -0.00376211 0.00229072 0.0229041 -0.00401505 0.00158099 0.0256851 -0.00435096 0.00206221 
0.0284928 -0.00434343 0.00154049 -0.0289702 -0.00271759 0.00203195 -0.00496943 -0.000414517 0.00207745 
-0.00214574 -0.000268381 0.00240595 0.00400806 -0.00142078 0.00152418 0.00664888 -0.000345408 0.0015003 
0.0139695 -0.00014867 0.00198339 0.0174925 -0.00131826 0.00146753 0.0225672 -0.00117959 0.00160436 
0.0347367 -0.00196413 0.0014979 0.00333619 -0.0154918 0.00269558 0.00555031 -0.017303 0.00404001 
0.00213502 -0.0135046 0.00435025 0.00628643 -0.0145499 0.00390854 0.0090541 -0.0128675 0.00384624 
0.0144991 -0.0133774 0.0037808 0.000709265 -0.0110796 0.00385036 0.00394305 -0.0113521 0.0038568 
0.00698714 -0.0110304 0.00454331 0.0118342 -0.0123849 0.00358966 0.0100492 -0.0102131 0.00417316 
0.0173459 -0.0100084 0.00260985 0.0181331 -0.0122511 0.00418668 0.021224 -0.0119963 0.00409726 
0.0306341 -0.0100108 0.00273246 -0.00550097 -0.00755184 0.00418369 -0.00270569 -0.00812025 0.00396632 
0.00254107 -0.0088688 0.00403799 0.0134952 -0.00909061 0.0043767 0.015986 -0.00780751 0.00386551 
0.0188114 -0.00809999 0.00416538 0.0214113 -0.00918762 0.00456468 0.0242488 -0.00896968 0.00449438 
0.0270703 -0.00903638 0.00411328 -0.0341454 -0.00547407 0.00394107 -0.0074805 -0.00568338 0.00330317 
-0.000391766 -0.00675462 0.00489228 -0.00244732 -0.00530604 0.00353264 0.00277335 -0.00607442 0.00344721 
0.00588368 -0.00687911 0.00416242 0.0135717 -0.00626444 0.00404435 0.0191715 -0.00526915 0.00450006 
0.021073 -0.00680313 0.00301954 0.0243119 -0.00611464 0.00453914 0.0271612 -0.00618856 0.00429385 
0.0296016 -0.00735068 0.00268594 0.0319589 -0.00656835 0.00408553 -0.0364909 -0.0043365 0.00278754 
-0.0059402 -0.00340113 0.00406421 -0.00349238 -0.00277036 0.00273423 -0.00111676 -0.00252725 0.00430271 
0.000310639 -0.00468055 0.00307458 0.00170909 -0.00272975 0.00460894 0.00415673 -0.00356269 0.003401 
0.0085988 -0.00317143 0.00312959 0.0131782 -0.00343405 0.00372043 0.0158026 -0.00451396 0.00377925 
0.0180134 -0.00272053 0.00388697 0.0211898 -0.00329692 0.00491187 0.0239485 -0.00331701 0.00413141 
0.0267208 -0.00266139 0.00410752 0.0296742 -0.00485386 0.00407694 0.0305196 -0.00258907 0.00253136 
-0.0263287 -0.00375837 0.00234106 -0.00753234 -0.00157059 0.00255935 0.000621667 -0.000743708 0.00288026 
0.00627719 -0.00172781 0.00396204 0.0132112 -0.000211296 0.00474342 0.0165406 -0.000251254 0.00390722 
0.0199866 -0.000966342 0.00280221 0.0286427 -0.000663153 0.00346597 0.032413 -0.00119795 0.0041679 
0.0040237 -0.0153465 0.00545756 0.00524613 -0.0128118 0.00592637 0.00805738 -0.0142349 0.00613763 
0.0108377 -0.0136142 0.00596333 -0.0029757 -0.0103599 0.00734578 -0.00039708 -0.0122424 0.00621276 
0.00230787 -0.0113297 0.00619471 0.0105347 -0.0109375 0.00687376 0.0132769 -0.0121424 0.00604171 
0.0173926 -0.0123568 0.00693211 0.0196535 -0.0108038 0.0061461 0.0243466 -0.0104317 0.00694614 
-0.00522998 -0.00761357 0.00703171 -0.000854042 -0.00948376 0.00563961 -0.00237527 -0.00757991 0.00711525 
0.00161798 -0.00862542 0.00674782 0.00497319 -0.00924179 0.00548596 0.00890791 -0.00782964 0.00528334 
0.0115204 -0.00832754 0.00628955 0.014992 -0.00843634 0.00671361 0.0170407 -0.00993959 0.00543959 
0.0217538 -0.00932539 0.00739317 0.0244248 -0.00757594 0.00698372 -0.00443799 -0.00529802 0.00557047 
0.00158936 -0.0057749 0.00671014 0.00420373 -0.00518036 0.00574263 0.00647894 -0.00644651 0.00690735 
0.0092415 -0.00604335 0.00749547 0.0114589 -0.00550257 0.00580196 0.021676 -0.00600804 0.00567166 
0.0271959 -0.00682732 0.00707872 -0.00842131 -0.00435126 0.00562797 -0.00606453 -0.00337857 0.00692326 
-0.00367496 -0.00255512 0.00557526 -0.00173971 -0.00457393 0.00618536 0.00318525 -0.0028477 0.00705015 
0.00682848 -0.00432153 0.00504405 0.00943329 -0.00347624 0.00585359 0.0124903 -0.00291006 0.00641844 
0.0145746 -0.0048573 0.0063213 0.019142 -0.00367321 0.00687507 0.0232168 -0.00391454 0.00682638 
0.0259342 -0.00444347 0.00618959 0.0287249 -0.00441307 0.0067351 -0.0102379 -0.000448746 0.00682066 
-0.00769707 -0.00160626 0.00540445 3.68131e-05 -0.00245664 0.00691325 0.00655292 -0.000255809 0.00637778 
0.0151114 -0.00220814 0.00542123 0.0176595 -0.00130086 0.00633063 0.0225424 -0.00119467 0.00627291 
0.027128 -0.0021034 0.00728542 0.0300497 -0.00231692 0.00532429 0.0147734 -0.020439 0.00743808 
0.00353002 -0.0129469 0.00820637 0.00606975 -0.0140444 0.00888069 0.0088321 -0.0147642 0.00885021 
0.0110719 -0.012992 0.00875053 0.00297224 -0.0101956 0.00872446 0.00544282 -0.0113484 0.00959489 
0.00737784 -0.0118747 0.0075735 0.0117746 -0.0102615 0.00935125 0.0166499 -0.0107758 0.00918043 
0.0210606 -0.0119369 0.00834434 -0.00448763 -0.00904994 0.00938533 5.36103e-05 -0.00901363 0.00910977 
0.00607908 -0.00882335 0.00843705 0.00955485 -0.00873558 0.00834896 0.0130115 -0.00778179 0.00865557 
0.0157609 -0.00787191 0.00940549 0.0192803 -0.00971604 0.0087575 -0.00729648 -0.00579365 0.00781493 
-0.00315038 -0.0065412 0.00965662 -0.000631553 -0.00580187 0.00850542 0.00385737 -0.0071749 0.00774816 
0.00643641 -0.00589227 0.00968408 0.0198828 -0.00718401 0.00756506 0.0224023 -0.006147 0.00842084 
-0.00965956 -0.00496973 0.00918865 -0.00867376 -0.00263168 0.00787758 -0.00712914 -0.00388102 0.00993399 
-0.00380453 -0.00398345 0.00856173 -0.000582131 -0.00279879 0.00967692 0.00356049 -0.00350141 0.00981087 
0.00739939 -0.00391338 0.00782513 0.0101312 -0.00357114 0.00862193 0.0124875 -0.00261402 0.00995774 
0.0125991 -0.00497989 0.00837342 0.0165462 -0.00328711 0.00804496 0.0187308 -0.00264912 0.00976509 
0.0255655 -0.00380167 0.00896155 -0.0104732 -0.00119968 0.00956477 -0.00516726 -0.00146472 0.00883898 
-0.00246627 -0.00154316 0.00794423 0.00104521 -0.000608471 0.00884479 0.00548395 -0.00189693 0.00844639 
0.0143106 -0.00149896 0.0080711 0.0168656 -0.000627884 0.0089983 0.0201144 -0.00113741 0.00778021 
0.0245933 -0.00121524 0.00826085 0.0298409 -0.00220611 0.00817179 0.00415319 -0.0135113 0.0109357 
0.00817437 -0.0106085 0.0100042 0.0143167 -0.009998 0.0106428 0.00077398 -0.00936176 0.0118505 
0.00240906 -0.00777516 0.0101293 0.00775744 -0.007998 0.0110808 0.0108268 -0.00796211 0.0107736 
0.013166 -0.00806504 0.0124041 0.0177927 -0.00899052 0.0110804 0.0217388 -0.00987722 0.0101907 
-0.000716842 -0.00706186 0.0110572 0.00214876 -0.00576038 0.0121317 0.00919707 -0.00564617 0.0103304 
0.0140204 -0.00598465 0.0106416 0.0165975 -0.00650432 0.0117695 0.0190016 -0.00655131 0.0102112 
0.0230867 -0.00745348 0.0108661 -0.00312128 -0.00422501 0.0113265 -0.000356609 -0.00439888 0.0120244 
0.00488168 -0.00497468 0.0118705 0.00731213 -0.0036111 0.0111465 0.0101208 -0.00319043 0.0114528 
0.0173875 -0.00377957 0.0120142 0.0153213 -0.00250357 0.0105171 0.020737 -0.00481244 0.0116744 
0.0233811 -0.00462378 0.0106108 0.00156728 -0.00235307 0.0115023 0.0049705 -0.00214017 0.0118982 
0.00743438 -0.000771241 0.0115411 0.0215391 -0.00246567 0.0102588 0.0122442 -0.00172104 0.0126647 
-0.0141834 -0.0115593 0.0203658 -0.0267383 -0.000941681 0.002119 0.00902218 0.00775901 0.0161205 
-0.00953642 0.000175072 0.00152626 -0.00758377 0.00208034 0.00236901 -0.00359094 0.00202025 0.00149565 
0.0163886 0.00131026 0.00152561 0.021504 0.00138957 0.00224964 0.032776 0.000109152 0.00165272 
0.0355443 0.000774045 0.00160181 -0.0101562 0.00295678 0.00148406 -0.00565583 0.00399636 0.00148534 
0.0160362 0.00405506 0.00224017 0.0249184 0.00312244 0.00149006 0.0273392 0.00426947 0.00247009 
0.0336178 0.00275593 0.00233034 -0.011979 0.00730436 0.00198452 -0.00637985 0.00678042 0.00154244 
0.000315393 0.00604873 0.00151944 0.0113235 0.00691244 0.00149564 0.0182428 0.00570854 0.00150318 
0.0281083 0.00700572 0.00224253 0.0308607 0.0062496 0.00230298 0.0345126 0.00541485 0.00177131 
-0.00375481 0.00993907 0.00221726 0.00113875 0.00877815 0.00152542 0.00888016 0.00849306 0.00149674 
0.011399 0.00976058 0.00158542 0.0264201 0.00995118 0.00157524 0.0331408 0.00791804 0.00191983 
-0.0120638 0.0101634 0.00203496 -0.00988803 0.0119484 0.00149179 -0.00715673 0.011404 0.00216548 
-0.00106656 0.0105901 0.00146755 0.00348847 0.0102383 0.00220634 0.00619378 0.0109841 0.00155658 
0.00903993 0.011364 0.00160894 0.0139238 0.011034 0.00191017 0.0191776 0.01185 0.00196591 
0.0240246 0.0114331 0.00198808 0.029254 0.0103002 0.0014643 0.031074 0.0124281 0.00187794 
-0.0115543 0.0141448 0.0022535 -0.00884238 0.0146134 0.00148843 0.00416269 0.012966 0.00186203 
[...]
POINT_DATA 1000
FIELD FieldData 7
id 1 1000 int
10 41 49 24 266 25 280 297 3 
18 263 22 12 290 285 53 27 302 
36 282 268 251 277 295 37 48 21 
9 141 83 29 17 2 16 50 30 
46 15 39 247 23 43 104 38 33 
7 19 274 309 124 191 107 235 6 
378 138 164 248 254 1 252 52 262 
504 298 256 535 301 520 56 296 272 
32 270 58 306 258 13 45 294 264 
260 51 259 253 28 287 278 31 273 
4 281 305 34 65 40 304 205 54 
47 303 308 44 8 5 42 289 261 
527 292 279 79 291 11 35 434 67 
14 554 689 26 267 551 558 761 509 
531 555 544 543 501 533 549 524 525 
508 548 552 526 518 257 521 503 293 
534 283 528 532 286 284 767 507 506 
276 255 510 265 275 300 269 556 307 
530 788 804 529 536 158 299 288 547 
807 511 216 515 810 773 766 769 787 
789 774 782 751 768 765 776 755 516 
797 546 502 757 522 540 542 538 512 
784 519 794 523 505 764 545 539 557 
517 513 790 752 792 806 541 648 537 
271 550 514 809 801 775 805 802 781 
796 808 777 795 786 803 778 798 553 
758 791 800 763 759 753 762 783 793 
780 754 772 785 779 756 799 770 760 
57 197 864 193 339 102 55 186 136 
160 357 199 161 131 242 218 363 89 
429 112 331 384 425 234 237 69 63 
206 130 433 455 227 229 118 243 123 
116 211 238 157 149 169 223 175 204 
84 62 155 203 165 80 178 194 183 
472 154 249 179 222 90 127 310 120 
87 332 208 117 226 86 182 110 64 
430 105 159 407 404 75 231 399 174 
484 740 184 77 60 103 195 367 219 
98 236 360 151 121 177 143 239 156 
487 431 392 496 190 139 749 401 111 
114 233 91 20 416 397 323 113 389 
482 72 66 685 393 214 499 209 68 
344 413 202 330 328 380 724 96 232 
359 423 94 212 314 445 119 460 419 
313 101 85 122 73 213 189 333 147 
99 92 317 128 210 246 145 220 241 
180 352 448 142 185 78 88 198 150 
61 100 408 166 428 415 490 93 311 
163 240 462 492 570 346 427 471 387 
146 59 221 115 201 385 465 483 394 
391 82 126 245 196 109 106 412 495 
379 347 435 140 436 167 97 364 376 
366 315 464 491 188 341 451 437 422 
463 418 402 390 447 349 170 168 162 
225 176 439 224 153 334 76 388 81 
148 459 125 603 329 640 565 370 320 
95 134 192 207 200 679 709 457 369 
675 132 477 383 596 688 698 449 486 
468 382 129 655 642 632 678 732 365 
673 900 666 629 452 450 454 338 362 
730 680 563 335 398 727 912 438 173 
172 135 355 250 358 625 475 626 707 
498 152 70 466 470 396 456 561 343 
476 340 350 692 473 215 405 181 342 
622 598 494 74 480 137 244 368 373 
461 646 411 377 714 337 420 348 230 
371 386 674 409 406 414 481 474 594 
395 336 444 741 467 319 575 400 722 
620 322 728 590 560 171 581 702 479 
318 485 750 618 432 356 668 500 615 
592 616 71 564 623 442 879 898 228 
426 381 372 638 458 922 326 353 735 
325 571 567 613 577 945 663 652 441 
573 572 876 974 601 695 469 927 981 
992 967 862 703 417 440 747 645 915 
701 566 847 890 936 744 579 670 569 
593 738 930 589 979 316 656 903 611 
591 726 664 607 453 493 619 718 653 
410 658 609 446 870 606 354 217 108 
403 489 682 654 745 650 955 715 562 
361 421 497 488 617 599 610 624 700 
424 710 723 568 634 748 321 614 327 
312 578 828 660 733 739 585 588 743 
996 933 375 672 691 697 816 586 600 
587 621 595 665 597 576 643 651 644 
604 559 818 868 712 716 602 628 639 
662 720 988 734 608 999 708 925 746 
989 631 686 681 848 690 635 811 696 
641 729 693 699 860 853 906 919 351 
612 574 932 909 704 877 929 958 771 
959 896 649 717 961 886 921 984 971 
835 647 633 711 659 731 817 869 840 
837 942 964 882 814 627 684 843 705 
582 935 871 895 856 855 669 637 924 
812 917 953 657 859 683 584 374 671 
345 736 630 914 580 842 954 823 867 
719 742 324 908 815 824 897 902 583 
976 957 977 713 938 949 478 881 963 
836 721 948 968 826 905 844 694 676 
636 667 834 737 970 857 918 838 725 
845 993 852 889 893 880 944 822 947 
987 865 965 875 687 885 854 829 819 
661 940 952 980 986 827 830 858 978 
874 878 962 821 913 133 861 946 850 
939 928 907 841 997 825 916 941 833 
901 926 891 931 911 937 985 990 975 
849 998 910 813 863 943 888 873 883 
677 866 951 872 969 983 920 706 605 
950 851 846 934 894 1000 960 884 982 
995 956 966 904 973 923 994 831 899 
972 887 820 832 187 991 892 839 443 
144 
type 1 1000 int
1 1 1 1 1 1 1 1 1 
1 1 1 1 1 1 1 1 1 
1 1 1 1 1 1 1 1 1 
1 1 1 1 1 1 1 1 1 
1 1 1 1 1 1 1 1 1 
1 1 1 1 1 1 1 1 1 
1 1 1 1 1 1 1 1 1 
1 1 1 1 1 1 1 1 1 
1 1 1 1 1 1 1 1 1 
1 1 1 1 1 1 1 1 1 
1 1 1 1 1 1 1 1 1 
1 1 1 1 1 1 1 1 1 
1 1 1 1 1 1 1 1 1 
1 1 1 1 1 1 1 1 1 
1 1 1 1 1 1 1 1 1 
1 1 1 1 1 1 1 1 1 
1 1 1 1 1 1 1 1 1 
1 1 1 1 1 1 1 1 1 
1 1 1 1 1 1 1 1 1 
1 1 1 1 1 1 1 1 1 
1 1 1 1 1 1 1 1 1 
1 1 1 1 1 1 1 1 1 
1 1 1 1 1 1 1 1 1 
1 1 1 1 1 1 1 1 1 
1 1 1 1 1 1 1 1 1 
1 1 1 1 1 1 1 1 1 
1 1 1 1 1 1 1 1 1 
1 1 1 1 1 1 1 1 1 
1 1 1 1 1 1 1 1 1 
1 1 1 1 1 1 1 1 1 
1 1 1 1 1 1 1 1 1 
1 1 1 1 1 1 1 1 1 
1 1 1 1 1 1 1 1 1 
1 1 1 1 1 1 1 1 1 
1 1 1 1 1 1 1 1 1 
1 1 1 1 1 1 1 1 1 
1 1 1 1 1 1 1 1 1 
1 1 1 1 1 1 1 1 1 
1 1 1 1 1 1 1 1 1 
1 1 1 1 1 1 1 1 1 
1 1 1 1 1 1 1 1 1 
1 1 1 1 1 1 1 1 1 
1 1 1 1 1 1 1 1 1 
1 1 1 1 1 1 1 1 1 
1 1 1 1 1 1 1 1 1 
1 1 1 1 1 1 1 1 1 
1 1 1 1 1 1 1 1 1 
1 1 1 1 1 1 1 1 1 
1 1 1 1 1 1 1 1 1 
1 1 1 1 1 1 1 1 1 
1 1 1 1 1 1 1 1 1 
1 1 1 1 1 1 1 1 1 
1 1 1 1 1 1 1 1 1 
1 1 1 1 1 1 1 1 1 
1 1 1 1 1 1 1 1 1 
1 1 1 1 1 1 1 1 1 
1 1 1 1 1 1 1 1 1 
1 1 1 1 1 1 1 1 1 
1 1 1 1 1 1 1 1 1 
1 1 1 1 1 1 1 1 1 
1 1 1 1 1 1 1 1 1 
1 1 1 1 1 1 1 1 1 
1 1 1 1 1 1 1 1 1 
1 1 1 1 1 1 1 1 1 
1 1 1 1 1 1 1 1 1 
1 1 1 1 1 1 1 1 1 
1 1 1 1 1 1 1 1 1 
1 1 1 1 1 1 1 1 1 
1 1 1 1 1 1 1 1 1 
1 1 1 1 1 1 1 1 1 
1 1 1 1 1 1 1 1 1 
1 1 1 1 1 1 1 1 1 
1 1 1 1 1 1 1 1 1 
1 1 1 1 1 1 1 1 1 
1 1 1 1 1 1 1 1 1 
1 1 1 1 1 1 1 1 1 
1 1 1 1 1 1 1 1 1 
1 1 1 1 1 1 1 1 1 
1 1 1 1 1 1 1 1 1 
1 1 1 1 1 1 1 1 1 
1 1 1 1 1 1 1 1 1 
1 1 1 1 1 1 1 1 1 
1 1 1 1 1 1 1 1 1 
1 1 1 1 1 1 1 1 1 
1 1 1 1 1 1 1 1 1 
1 1 1 1 1 1 1 1 1 
1 1 1 1 1 1 1 1 1 
1 1 1 1 1 1 1 1 1 
1 1 1 1 1 1 1 1 1 
1 1 1 1 1 1 1 1 1 
1 1 1 1 1 1 1 1 1 
1 1 1 1 1 1 1 1 1 
1 1 1 1 1 1 1 1 1 
1 1 1 1 1 1 1 1 1 
1 1 1 1 1 1 1 1 1 
1 1 1 1 1 1 1 1 1 
1 1 1 1 1 1 1 1 1 
1 1 1 1 1 1 1 1 1 
1 1 1 1 1 1 1 1 1 
1 1 1 1 1 1 1 1 1 
1 1 1 1 1 1 1 1 1 
1 1 1 1 1 1 1 1 1 
1 1 1 1 1 1 1 1 1 
1 1 1 1 1 1 1 1 1 
1 1 1 1 1 1 1 1 1 
1 1 1 1 1 1 1 1 1 
1 1 1 1 1 1 1 1 1 
1 1 1 1 1 1 1 1 1 
1 1 1 1 1 1 1 1 1 
1 1 1 1 1 1 1 1 1 
1 1 1 1 1 1 1 1 1 
1 
i 3 1000 int
0 0 0 0 0 0 0 0 0 
0 0 0 0 0 0 0 0 0 
0 0 0 0 0 0 0 0 0 
0 0 0 0 0 0 0 0 0 
0 0 0 0 0 0 0 0 0 
0 0 0 0 0 0 0 0 0 
0 0 0 0 0 0 0 0 0 
0 0 0 0 0 0 0 0 0 
0 0 0 0 0 0 0 0 0 
0 0 0 0 0 0 0 0 0 
0 0 0 0 0 0 0 0 0 
0 0 0 0 0 0 0 0 0 
0 0 0 0 0 0 0 0 0 
0 0 0 0 0 0 0 0 0 
0 0 0 0 0 0 0 0 0 
0 0 0 0 0 0 0 0 0 
0 0 0 0 0 0 0 0 0 
0 0 0 0 0 0 0 0 0 
0 0 0 0 0 0 0 0 0 
0 0 0 0 0 0 0 0 0 
0 0 0 0 0 0 0 0 0 
0 0 0 0 0 0 0 0 0 
0 0 0 0 0 0 0 0 0 
0 0 0 0 0 0 0 0 0 
0 0 0 0 0 0 0 0 0 
0 0 0 0 0 0 0 0 0 
0 0 0 0 0 0 0 0 0 
0 0 0 0 0 0 0 0 0 
0 0 0 0 0 0 0 0 0 
0 0 0 0 0 0 0 0 0 
0 0 0 0 0 0 0 0 0 
0 0 0 0 0 0 0 0 0 
0 0 0 0 0 0 0 0 0 
0 0 0 0 0 0 0 0 0 
0 0 0 0 0 0 0 0 0 
0 0 0 0 0 0 0 0 0 
0 0 0 0 0 0 0 0 0 
0 0 0 0 0 0 0 0 0 
0 0 0 0 0 0 0 0 0 
0 0 0 0 0 0 0 0 0 
0 0 0 0 0 0 0 0 0 
0 0 0 0 0 0 0 0 0 
0 0 0 0 0 0 0 0 0 
0 0 0 0 0 0 0 0 0 
0 0 0 0 0 0 0 0 0 
0 0 0 0 0 0 0 0 0 
0 0 0 0 0 0 0 0 0 
0 0 0 0 0 0 0 0 0 
0 0 0 0 0 0 0 0 0 
0 0 0 0 0 0 0 0 0 
0 0 0 0 0 0 0 0 0 
0 0 0 0 0 0 0 0 0 
0 0 0 0 0 0 0 0 0 
0 0 0 0 0 0 0 0 0 
0 0 0 0 0 0 0 0 0 
0 0 0 0 0 0 0 0 0 
0 0 0 0 0 0 0 0 0 
0 0 0 0 0 0 0 0 0 
0 0 0 0 0 0 0 0 0 
0 0 0 0 0 0 0 0 0 
0 0 0 0 0 0 0 0 0 
0 0 0 0 0 0 0 0 0 
0 0 0 0 0 0 0 0 0 
0 0 0 0 0 0 0 0 0 
0 0 0 0 0 0 0 0 0 
0 0 0 0 0 0 0 0 0 
0 0 0 0 0 0 0 0 0 
0 0 0 0 0 0 0 0 0 
0 0 0 0 0 0 0 0 0 
0 0 0 0 0 0 0 0 0 
0 0 0 0 0 0 0 0 0 
0 0 0 0 0 0 0 0 0 
0 0 0 0 0 0 0 0 0 
0 0 0 0 0 0 0 0 0 
0 0 0 0 0 0 0 0 0 
0 0 0 0 0 0 0 0 0 
0 0 0 0 0 0 0 0 0 
0 0 0 0 0 0 0 0 0 
0 0 0 0 0 0 0 0 0 
0 0 0 0 0 0 0 0 0 
0 0 0 0 0 0 0 0 0 
0 0 0 0 0 0 0 0 0 
0 0 0 0 0 0 0 0 0 
0 0 0 0 0 0 0 0 0 
0 0 0 0 0 0 0 0 0 
0 0 0 0 0 0 0 0 0 
0 0 0 0 0 0 0 0 0 
0 0 0 0 0 0 0 0 0 
0 0 0 0 0 0 0 0 0 
0 0 0 0 0 0 0 0 0 
0 0 0 0 0 0 0 0 0 
0 0 0 0 0 0 0 0 0 
0 0 0 0 0 0 0 0 0 
0 0 0 0 0 0 0 0 0 
0 0 0 0 0 0 0 0 0 
0 0 0 0 0 0 0 0 0 
0 0 0 0 0 0 0 0 0 
0 0 0 0 0 0 0 0 0 
0 0 0 0 0 0 0 0 0 
0 0 0 0 0 0 0 0 0 
0 0 0 0 0 0 0 0 0 
0 0 0 0 0 0 0 0 0 
0 0 0 0 0 0 0 0 0 
0 0 0 0 0 0 0 0 0 
0 0 0 0 0 0 0 0 0 
0 0 0 0 0 0 0 0 0 
0 0 0 0 0 0 0 0 0 
0 0 0 0 0 0 0 0 0 
0 0 0 0 0 0 0 0 0 
0 0 0 0 0 0 0 0 0 
0 0 0 0 0 0 0 0 0 
0 0 0 0 0 0 0 0 0 
0 0 0 0 0 0 0 0 0 
0 0 0 0 0 0 0 0 0 
0 0 0 0 0 0 0 0 0 
0 0 0 0 0 0 0 0 0 
0 0 0 0 0 0 0 0 0 
0 0 0 0 0 0 0 0 0 
0 0 0 0 0 0 0 0 0 
0 0 0 0 0 0 0 0 0 
0 0 0 0 0 0 0 0 0 
0 0 0 0 0 0 0 0 0 
0 0 0 0 0 0 0 0 0 
0 0 0 0 0 0 0 0 0 
0 0 0 0 0 0 0 0 0 
0 0 0 0 0 0 0 0 0 
0 0 0 0 0 0 0 0 0 
0 0 0 0 0 0 0 0 0 
0 0 0 0 0 0 0 0 0 
0 0 0 0 0 0 0 0 0 
0 0 0 0 0 0 0 0 0 
0 0 0 0 0 0 0 0 0 
0 0 0 0 0 0 0 0 0 
0 0 0 0 0 0 0 0 0 
0 0 0 0 0 0 0 0 0 
0 0 0 0 0 0 0 0 0 
0 0 0 0 0 0 0 0 0 
0 0 0 0 0 0 0 0 0 
0 0 0 0 0 0 0 0 0 
0 0 0 0 0 0 0 0 0 
0 0 0 0 0 0 0 0 0 
0 0 0 0 0 0 0 0 0 
0 0 0 0 0 0 0 0 0 
0 0 0 0 0 0 0 0 0 
0 0 0 0 0 0 0 0 0 
0 0 0 0 0 0 0 0 0 
0 0 0 0 0 0 0 0 0 
0 0 0 0 0 0 0 0 0 
0 0 0 0 0 0 0 0 0 
0 0 0 0 0 0 0 0 0 
0 0 0 0 0 0 0 0 0 
0 0 0 0 0 0 0 0 0 
0 0 0 0 0 0 0 0 0 
0 0 0 0 0 0 0 0 0 
0 0 0 0 0 0 0 0 0 
0 0 0 0 0 0 0 0 0 
0 0 0 0 0 0 0 0 0 
0 0 0 0 0 0 0 0 0 
0 0 0 0 0 0 0 0 0 
0 0 0 0 0 0 0 0 0 
0 0 0 0 0 0 0 0 0 
0 0 0 0 0 0 0 0 0 
0 0 0 0 0 0 0 0 0 
0 0 0 0 0 0 0 0 0 
0 0 0 0 0 0 0 0 0 
0 0 0 0 0 0 0 0 0 
0 0 0 0 0 0 0 0 0 
0 0 0 0 0 0 0 0 0 
0 0 0 0 0 0 0 0 0 
0 0 0 0 0 0 0 0 0 
0 0 0 0 0 0 0 0 0 
0 0 0 0 0 0 0 0 0 
0 0 0 0 0 0 0 0 0 
0 0 0 0 0 0 0 0 0 
0 0 0 0 0 0 0 0 0 
0 0 0 0 0 0 0 0 0 
0 0 0 0 0 0 0 0 0 
0 0 0 0 0 0 0 0 0 
0 0 0 0 0 0 0 0 0 
0 0 0 0 0 0 0 0 0 
0 0 0 0 0 0 0 0 0 
0 0 0 0 0 0 0 0 0 
0 0 0 0 0 0 0 0 0 
0 0 0 0 0 0 0 0 0 
0 0 0 0 0 0 0 0 0 
0 0 0 0 0 0 0 0 0 
0 0 0 0 0 0 0 0 0 
0 0 0 0 0 0 0 0 0 
0 0 0 0 0 0 0 0 0 
0 0 0 0 0 0 0 0 0 
0 0 0 0 0 0 0 0 0 
0 0 0 0 0 0 0 0 0 
0 0 0 0 0 0 0 0 0 
0 0 0 0 0 0 0 0 0 
0 0 0 0 0 0 0 0 0 
0 0 0 0 0 0 0 0 0 
0 0 0 0 0 0 0 0 0 
0 0 0 0 0 0 0 0 0 
0 0 0 0 0 0 0 0 0 
0 0 0 0 0 0 0 0 0 
0 0 0 0 0 0 0 0 0 
0 0 0 0 0 0 0 0 0 
0 0 0 0 0 0 0 0 0 
0 0 0 0 0 0 0 0 0 
0 0 0 0 0 0 0 0 0 
0 0 0 0 0 0 0 0 0 
0 0 0 0 0 0 0 0 0 
0 0 0 0 0 0 0 0 0 
0 0 0 0 0 0 0 0 0 
0 0 0 0 0 0 0 0 0 
0 0 0 0 0 0 0 0 0 
0 0 0 0 0 0 0 0 0 
0 0 0 0 0 0 0 0 0 
0 0 0 0 0 0 0 0 0 
0 0 0 0 0 0 0 0 0 
0 0 0 0 0 0 0 0 0 
0 0 0 0 0 0 0 0 0 
0 0 0 0 0 0 0 0 0 
0 0 0 0 0 0 0 0 0 
0 0 0 0 0 0 0 0 0 
0 0 0 0 0 0 0 0 0 
0 0 0 0 0 0 0 0 0 
0 0 0 0 0 0 0 0 0 
0 0 0 0 0 0 0 0 0 
0 0 0 0 0 0 0 0 0 
0 0 0 0 0 0 0 0 0 
0 0 0 0 0 0 0 0 0 
0 0 0 0 0 0 0 0 0 
0 0 0 0 0 0 0 0 0 
0 0 0 0 0 0 0 0 0 
0 0 0 0 0 0 0 0 0 
0 0 0 0 0 0 0 0 0 
0 0 0 0 0 0 0 0 0 
0 0 0 0 0 0 0 0 0 
0 0 0 0 0 0 0 0 0 
0 0 0 0 0 0 0 0 0 
0 0 0 0 0 0 0 0 0 
0 0 0 0 0 0 0 0 0 
0 0 0 0 0 0 0 0 0 
0 0 0 0 0 0 0 0 0 
0 0 0 0 0 0 0 0 0 
0 0 0 0 0 0 0 0 0 
0 0 0 0 0 0 0 0 0 
0 0 0 0 0 0 0 0 0 
0 0 0 0 0 0 0 0 0 
0 0 0 0 0 0 0 0 0 
0 0 0 0 0 0 0 0 0 
0 0 0 0 0 0 0 0 0 
0 0 0 0 0 0 0 0 0 
0 0 0 0 0 0 0 0 0 
0 0 0 0 0 0 0 0 0 
0 0 0 0 0 0 0 0 0 
0 0 0 0 0 0 0 0 0 
0 0 0 0 0 0 0 0 0 
0 0 0 0 0 0 0 0 0 
0 0 0 0 0 0 0 0 0 
0 0 0 0 0 0 0 0 0 
0 0 0 0 0 0 0 0 0 
0 0 0 0 0 0 0 0 0 
0 0 0 0 0 0 0 0 0 
0 0 0 0 0 0 0 0 0 
0 0 0 0 0 0 0 0 0 
0 0 0 0 0 0 0 0 0 
0 0 0 0 0 0 0 0 0 
0 0 0 0 0 0 0 0 0 
0 0 0 0 0 0 0 0 0 
0 0 0 0 0 0 0 0 0 
0 0 0 0 0 0 0 0 0 
0 0 0 0 0 0 0 0 0 
0 0 0 0 0 0 0 0 0 
0 0 0 0 0 0 0 0 0 
0 0 0 0 0 0 0 0 0 
0 0 0 0 0 0 0 0 0 
0 0 0 0 0 0 0 0 0 
0 0 0 0 0 0 0 0 0 
0 0 0 0 0 0 0 0 0 
0 0 0 0 0 0 0 0 0 
0 0 0 0 0 0 0 0 0 
0 0 0 0 0 0 0 0 0 
0 0 0 0 0 0 0 0 0 
0 0 0 0 0 0 0 0 0 
0 0 0 0 0 0 0 0 0 
0 0 0 0 0 0 0 0 0 
0 0 0 0 0 0 0 0 0 
0 0 0 0 0 0 0 0 0 
0 0 0 0 0 0 0 0 0 
0 0 0 0 0 0 0 0 0 
0 0 0 0 0 0 0 0 0 
0 0 0 0 0 0 0 0 0 
0 0 0 0 0 0 0 0 0 
0 0 0 0 0 0 0 0 0 
0 0 0 0 0 0 0 0 0 
0 0 0 0 0 0 0 0 0 
0 0 0 0 0 0 0 0 0 
0 0 0 0 0 0 0 0 0 
0 0 0 0 0 0 0 0 0 
0 0 0 0 0 0 0 0 0 
0 0 0 0 0 0 0 0 0 
0 0 0 0 0 0 0 0 0 
0 0 0 0 0 0 0 0 0 
0 0 0 0 0 0 0 0 0 
0 0 0 0 0 0 0 0 0 
0 0 0 0 0 0 0 0 0 
0 0 0 0 0 0 0 0 0 
0 0 0 0 0 0 0 0 0 
0 0 0 0 0 0 0 0 0 
0 0 0 0 0 0 0 0 0 
0 0 0 0 0 0 0 0 0 
0 0 0 0 0 0 0 0 0 
0 0 0 0 0 0 0 0 0 
0 0 0 0 0 0 0 0 0 
0 0 0 0 0 0 0 0 0 
0 0 0 0 0 0 0 0 0 
0 0 0 0 0 0 0 0 0 
0 0 0 0 0 0 0 0 0 
0 0 0 0 0 0 0 0 0 
0 0 0 0 0 0 0 0 0 
0 0 0 0 0 0 0 0 0 
0 0 0 0 0 0 0 0 0 
0 0 0 0 0 0 0 0 0 
0 0 0 0 0 0 0 0 0 
0 0 0 0 0 0 0 0 0 
0 0 0 0 0 0 0 0 0 
0 0 0 0 0 0 0 0 0 
0 0 0 0 0 0 0 0 0 
0 0 0 0 0 0 0 0 0 
0 0 0 0 0 0 0 0 0 
0 0 0 0 0 0 0 0 0 
0 0 0 0 0 0 0 0 0 
0 0 0 0 0 0 0 0 0 
0 0 0 0 0 0 0 0 0 
0 0 0 0 0 0 0 0 0 
0 0 0 0 0 0 0 0 0 
0 0 0 
v 3 1000 double
0.014343433796 7.3653953549e-05 0.025375287933 3.1600214799e-05 0.0034120265705 -0.014213941244 0.00019281352462 0.011167020509 -0.0059516729509 
0.00089253090839 -0.0042127847981 -0.01391093212 0.00092697519647 0.00097011593714 -0.0044672245694 -0.0039449970267 0.0050272656863 0.006427008336 
-0.0050924031709 0.015394980877 0.0055448356521 0.00011292347792 -0.0031614053798 0.0065278726784 -0.0047865971943 0.0016426344424 -0.0010478464751 
-0.022101514849 0.018667784585 0.00034324279656 -0.0018537751696 -0.00064780613341 0.005301278353 -0.0044638776696 -0.0025757874823 0.00084514749766 
-0.0020531497369 -0.0061811381893 -0.0048854677157 -0.00044688407963 -0.0080116961161 0.0030144606996 0.0027208335833 -0.0062153578595 0.0061582342876 
-0.0025286823391 0.0039655692097 -0.0020134880153 -0.00130368665 0.0002133229399 -0.0010086831149 -0.0025693587726 -0.001860859778 -0.0017038395253 
0.0016580653205 0.0032089477063 -0.0077804861787 -0.0063721736931 -0.0035658592283 0.0093377259492 -0.0021572896187 -0.0017866285243 0.0029366483257 
-0.00072763924963 -0.0051202152836 0.0079466050971 -0.00064833318703 -0.0063239079197 0.01278950585 -0.00036998492801 -0.0052703171209 0.0028344876892 
-0.0016306551664 -0.002155795511 0.00061749369666 -0.0022900862731 0.0044975906898 -0.0038813463556 -0.0018189039544 -0.0035285346314 0.00048093566941 
-0.0024908927299 -0.0052447234282 0.0025923195471 -0.0086949554747 -0.0047493350879 -0.024110405824 0.14291777007 0.049690118515 -0.0070579459295 
0.14721057635 0.029242910175 -0.014200355284 -0.0020744625099 0.0039991228883 0.0025097794309 -0.0027331841805 -0.0015563143809 0.0042408329398 
0.0019912772685 -0.0068546020134 0.010241160497 -0.001478601183 -0.0026826014542 -0.0013100110767 -0.0017312522561 -0.00099317478599 -0.0019764737777 
-0.00312466532 0.0020642335287 -0.0019988982862 0.00062214039719 0.00022159948737 -0.0038184067588 -0.00030785515575 -0.0048969532226 -0.0035794268078 
-0.002415515269 -0.0041124061204 -0.015901595655 0.1563562037 0.043435792941 0.003326696178 0.00060110833495 -0.0001138185239 0.0015514683145 
0.0037880573521 -0.003016480481 -0.002851165341 0.00032695644289 -0.0020857033145 -0.0028222145872 0.0012081998721 -9.9329741748e-05 -0.0029559112144 
0.0033869280626 0.0028303525628 -0.0054407259452 0.003715007417 0.0041787060748 -0.006092053831 0.0028161039211 -0.00066090737311 -0.0065356998008 
0.00044196949573 -0.003991710958 -0.0086770175891 0.065843187151 -0.19009732747 0.00053966946713 0.0046117014694 -0.000851982956 0.0019174374418 
0.0034307944314 0.0017942123859 0.0025021725161 0.0063076812433 0.0014304222954 -0.0057085123321 0.0092484413656 -0.0035423217948 -0.0041951393369 
-0.0011225197122 -0.003389369304 -0.0029764150929 0.00065030455305 -0.00019805104125 -0.0023429058303 0.0026005560647 0.0058366214731 -0.0089744501683 
0.0098789951433 0.0056084677258 -0.0011959901339 -0.00037775504354 -0.0022535342937 -0.0043733985384 0.0034719001781 -0.0030916723275 -0.013950891471 
-0.0083988965291 -0.005884924492 0.00023789462773 -0.0039779394189 -0.0014055604309 0.0014182970165 -0.0024022720012 -0.002062103106 0.0091666900373 
0.0044707501555 -0.0038350956609 0.012262797096 -0.0047545585439 -0.00080350422155 0.0046314360037 -0.004225952812 -0.0032477198102 0.0057136678214 
-0.00024479074636 0.00086656313909 0.026604923517 0.0011861432368 -0.0079533094327 0.0074198528899 -0.0029449074474 -0.0082030050947 0.005534132935 
-0.0011699427006 0.0017219671059 -0.00050711019618 0.00034192028929 0.0039528548589 0.00092190429501 -0.0059677430291 0.0038697213538 -0.0028037207566 
0.0022165873694 -0.0023398990092 -0.0072626659731 -0.0034839729972 -0.0024078859987 -0.0016594876423 -0.0036756689296 0.00050773004273 0.00044636653612 
-0.00088880413203 -0.001307242886 0.0056651064922 -0.0010907764238 -0.0020005637228 -0.0013757889553 -0.0009940208987 0.001149386968 -0.0010424673979 
0.0001788702868 0.0038194861243 -0.0026984487699 -0.0020176308613 0.0039240217094 -0.003436973241 -0.0018547105722 0.0016307047572 -0.00094933413819 
-0.0024262807672 0.0006580312556 0.00043738934303 0.1668096303 0.030415104902 -0.006351651163 -0.0027686626938 -0.0023950565047 -0.0010426972262 
-0.003127544841 -0.0013024484635 0.0043958479779 -6.1746295805e-05 0.00092443384151 0.0030663772093 0.0016122101677 -0.0016165796833 0.0024706124798 
-0.0029981374164 -0.0077772997122 0.0064361491652 0.00015231865984 -0.0019101828741 -0.0019411278104 0.0033359739916 0.0049619157607 -0.0036707234036 
0.00050275595754 0.004371891552 -0.0034779253984 0.0016911487588 0.0025277561159 -0.0039201230753 0.00077404674692 -0.00066983541541 -0.0055696202585 
0.00074424427334 -0.0033979877607 -0.0059157473809 0.009070439479 -0.0040849872643 -0.020391574529 0.16502057824 0.047367189512 0.024797687148 
0.0025894961526 -0.001701258709 -0.00075388190019 0.0033475416803 0.00097774706747 0.0020805904438 0.0023785391221 0.00054504866604 0.0021553506078 
0.00070383581146 -0.0015398448752 0.0025311813815 0.0030300078253 0.00037511363922 -0.00049570820913 0.0026841934607 -0.00012259419952 -0.0027579554479 
0.0018241669756 -0.00038510673403 -0.0024163895271 0.000660411164 -0.0020600153927 -0.0029011206312 0.0011921672336 -0.0019661671422 -0.0025749317041 
0.0037679826533 0.00075019460945 -0.0032926684166 0.0047448000262 0.0054837529259 -0.0047099767198 0.0055480718529 0.0023625303824 -0.0051987619336 
0.0050501036581 -0.00072038948384 -0.0069668167715 0.0042319261474 -0.0021446282827 -0.010554417713 0.0022418521862 -0.0023013849213 -0.012864759143 
0.05861656977 -0.25135486749 -0.11354665946 0.0049301466044 -0.0040122564551 -0.0039921669146 0.0029195611039 0.00040915581164 0.0014595385585 
0.0048338539628 -0.0017573968207 -0.0040689411366 0.0019735962127 -0.0052397167026 -0.0017205368903 0.0019148181608 -0.0021071584054 -0.0025405051778 
0.00080589595574 0.0045694594742 -0.010472412594 0.0025494886313 -0.00063586561093 -0.0094367131288 0.0045899376959 -0.0027779295041 -0.015649413421 
-0.0070196165839 -0.01149785087 -0.0048879577726 -0.0076088329138 -0.0086715517915 0.0035777148355 -0.0064741046923 -0.0066890731691 0.0059404106405 
-0.0025209893642 -0.0056303483382 0.0094361730506 -0.0037901790237 -0.0013027221871 0.0030227752752 -0.007205990697 0.0061654738283 0.012777603674 
-0.0054219591915 -0.0023968075591 0.0030271558756 -0.0042232929728 -0.00051957123288 0.0012728380038 -0.0052097276046 0.0025002462806 0.0066954769401 
0.002400043228 0.0013463008483 -4.5528776126e-05 -0.0033987240475 0.0056472078692 -0.002279805918 -0.0047194242633 0.0053328071903 0.0011846084982 
-0.0036660100348 -0.0024379886259 -0.0053892467803 -0.0040677507048 0.000358441018 0.0032143565841 -0.0049843980238 -0.0023387231244 -0.0004562466911 
-0.0013368867958 0.00098826223831 0.0042864593149 -0.010579924073 -0.00086439195815 0.017715930414 -0.0094041856429 -0.0089697908143 0.0030935140518 
-0.0022004446613 -0.00058910669872 -0.0036452596117 -0.0038271765742 0.003441953028 -0.0022587376739 -0.0012080589888 0.0044954138575 -0.00093736903286 
-0.0043208170323 0.0064827793177 -0.0032292266279 0.00027408686339 0.0047980142106 -0.003262589067 -0.00086251034165 0.0002000687233 -0.00072471231805 
-0.0010611938107 3.9476166381e-06 0.005068345126 0.0020671342357 0.0010907418662 -0.00022804650237 0.00012241412876 0.001761878892 0.00068240368174 