# vtk DataFile Version 4.1
Generated by LIGGGHTS
ASCII
DATASET POLYDATA
POINTS 1000 float
0.016625 -0.0433496 0.0017266 0.0041854 -0.043301 0.00194176 0.00608195 -0.0159462 0.00172064 
0.00236385 -0.0130661 0.00152891 0.0052129 -0.0132324 0.00178116 0.00802184 -0.0138327 0.00180822 
0.0167497 -0.0124814 0.00176125 0.00260021 -0.01025 0.00175094 0.00545806 -0.01036 0.00156088 
0.00832764 -0.0103041 0.00161509 0.0111747 -0.0101723 0.00145794 0.0137928 -0.0113549 0.00150882 
0.0194923 -0.0117397 0.00163704 0.0221753 -0.0125993 0.0014775 -0.00434953 -0.00955439 0.00237567 
-0.00023552 -0.00976389 0.00157632 0.00406284 -0.00783125 0.00152701 0.00686576 -0.00789688 0.00190991 
0.00967263 -0.0077491 0.00152312 0.012501 -0.00770277 0.00199748 0.0150847 -0.00883314 0.00149678 
0.0204628 -0.00910845 0.00198132 0.0255329 -0.00866553 0.00184995 0.02835 -0.008963 0.00150777 
0.0310629 -0.00983439 0.00158772 -0.00623536 -0.0076117 0.00146409 -0.00343592 -0.00698011 0.00146836 
-0.000614527 -0.00697612 0.00199721 0.00805857 -0.00533925 0.00151371 0.0157211 -0.00607085 0.00147761 
0.0182623 -0.00735494 0.00145598 0.0238094 -0.00639509 0.00173541 0.0271868 -0.00635806 0.00156597 
0.0324096 -0.00731609 0.00186066 0.00630844 -0.00304166 0.00147628 0.0112868 -0.00275814 0.00178761 
0.0131075 -0.00496039 0.00151367 0.0175715 -0.00391939 0.00146657 0.0202647 -0.00348799 0.00225195 
0.0230128 -0.00366063 0.00148816 0.0258281 -0.00388352 0.00203737 0.0286319 -0.00388635 0.00149736 
0.0313499 -0.00468449 0.00184966 -0.00490637 -0.000320897 0.00223324 -0.000907346 -0.00255723 0.00147212 
-0.00209289 -0.00016369 0.00249727 0.00404541 -0.00128857 0.00153535 0.00667959 -0.00018779 0.0014863 
0.017478 -0.00108117 0.00148982 0.0225658 -0.000840622 0.00150365 0.0374997 -0.000422626 0.0014822 
0.00627561 -0.0438211 0.00381596 0.00573182 -0.0411425 0.00298208 0.00352982 -0.0153181 0.00279806 
0.00565009 -0.0171689 0.00427556 0.00232094 -0.0132958 0.00440236 0.00648013 -0.0144306 0.00409409 
0.00937631 -0.0126907 0.00405015 0.0121457 -0.0123134 0.003624 0.000884906 -0.0109135 0.00393466 
0.00416071 -0.0111561 0.00398403 0.0104961 -0.0100623 0.0041967 0.0182908 -0.0120457 0.00413469 
0.0214809 -0.0117211 0.00409397 0.0231174 -0.0100835 0.0024378 -0.00249496 -0.00806649 0.0038977 
0.00269068 -0.00872017 0.00414344 0.0136944 -0.00898158 0.00423915 0.0175221 -0.00982394 0.00260014 
0.0161481 -0.00760652 0.00384236 0.018974 -0.00786731 0.00413327 0.0215992 -0.0089029 0.00456835 
0.024442 -0.00862134 0.00447578 0.0272709 -0.00859636 0.00412281 -0.0256388 -0.0067206 0.00352603 
-0.0230975 -0.00694336 0.00480708 -0.00732702 -0.00569677 0.00328443 -0.00528957 -0.00751091 0.00412337 
-0.000202438 -0.00666292 0.00481052 -0.00229574 -0.00523966 0.00347269 0.00291547 -0.00596435 0.00338125 
0.00604589 -0.0068717 0.00443966 0.0136861 -0.00611021 0.00407385 0.02123 -0.00655615 0.00296691 
0.024304 -0.00576892 0.00447294 0.027169 -0.00574482 0.00430581 0.0297326 -0.00682709 0.00277848 
0.0319641 -0.0059522 0.00433817 -0.023732 -0.00461626 0.00327482 -0.0261359 -0.00420341 0.00477439 
-0.00585329 -0.00337135 0.00410551 -0.0034181 -0.00268737 0.00279419 0.000446042 -0.00453639 0.00302557 
0.00423562 -0.00343819 0.00338932 0.0069093 -0.00419355 0.00496391 0.00869332 -0.00299882 0.00301953 
0.0133327 -0.00321738 0.00373236 0.0159255 -0.00438748 0.003741 0.0193665 -0.00502608 0.00447374 
0.0212886 -0.00293688 0.00483805 0.0240318 -0.00296455 0.00404319 0.0296533 -0.00428344 0.00410574 
-0.0251783 -0.00216688 0.0030231 -0.00746584 -0.00144825 0.00270313 -0.0010166 -0.00243896 0.00430983 
0.00180188 -0.00259599 0.00458714 0.000684776 -0.000649887 0.00285845 0.00637675 -0.00160354 0.00392067 
0.018092 -0.00252302 0.00388879 0.0200031 -0.000704276 0.00278201 0.0306057 -0.00203895 0.00248064 
0.00415767 -0.0151075 0.00557147 0.00551508 -0.0126125 0.0060377 0.0112416 -0.0131464 0.00619336 
0.014909 -0.0127309 0.00397937 0.0024921 -0.0111575 0.00629617 0.0198554 -0.0105835 0.00610937 
-0.00514637 -0.00756704 0.00698182 -0.000707155 -0.00934845 0.00570948 0.0017516 -0.00844183 0.00680505 
0.00496492 -0.00913405 0.00584663 0.00910039 -0.00802254 0.00564204 0.0172387 -0.0097021 0.00544589 
-0.00427234 -0.00526503 0.00552935 0.00161448 -0.00557561 0.00669289 0.00657267 -0.00635579 0.00718651 
0.0116116 -0.00533637 0.00588043 0.0217839 -0.00573801 0.00576694 0.024725 -0.00722326 0.00693755 
-0.00827207 -0.00443096 0.00564044 -0.001587 -0.00455442 0.00613982 0.00427397 -0.00504824 0.00574566 
0.00955177 -0.00339157 0.00568611 0.0126634 -0.00273475 0.00643688 0.0147594 -0.00465854 0.006325 
0.0193257 -0.00345501 0.00685285 0.0233232 -0.00354323 0.00674947 -0.00764374 -0.00166082 0.00553387 
-0.00355485 -0.00252626 0.0056361 0.000160472 -0.00243998 0.00693434 0.00662974 -0.000201792 0.00637841 
0.0152453 -0.00196377 0.00545914 0.0178328 -0.00106069 0.00633754 0.0290655 -0.000910244 0.00455232 
0.00307125 -0.0116565 0.00905084 0.00659215 -0.0106098 0.0077504 0.0139335 -0.0123224 0.00663661 
0.012195 -0.00805998 0.00647596 0.0158451 -0.00855871 0.00769807 0.0218295 -0.0089653 0.00740221 
-0.00653092 -0.00568227 0.00862524 -0.00228528 -0.00749423 0.00716433 -0.000543982 -0.00571283 0.00854516 
0.00384129 -0.0068373 0.00791812 0.00654428 -0.00530329 0.00983149 0.00937192 -0.00590359 0.00754644 
0.0227379 -0.00578946 0.00842539 -0.00851588 -0.00281406 0.00799187 -0.00594259 -0.00345545 0.0069327 
0.00756405 -0.0037029 0.0077015 0.0103076 -0.00336201 0.0084376 0.0127856 -0.00476677 0.00840784 
0.0167564 -0.00310642 0.00801209 0.0268173 -0.00265866 0.00451396 -0.00232883 -0.0014321 0.00798355 
0.00306695 -0.00272627 0.00707682 0.014499 -0.00137919 0.00815661 0.0224238 -0.000837645 0.00677518 
0.0299754 -0.00189614 0.00706938 0.00942365 -0.0135893 0.00833996 -0.000248238 -0.0109243 0.00808718 
0.0175687 -0.0121558 0.00687047 0.0111218 -0.0104497 0.00762379 0.013517 -0.00748389 0.00892501 
0.0195422 -0.00978349 0.00886743 0.0243007 -0.00937285 0.00877238 0.0200413 -0.00674259 0.00775748 
-0.0055758 -0.00317617 0.00968077 0.0093085 -0.00419935 0.0109695 0.0268592 -0.00445367 0.00669604 
-0.000504953 -0.0026084 0.00985163 0.00527477 -0.00171549 0.00856819 0.0125326 -0.00237776 0.00996389 
0.0164069 -0.00143644 0.0102919 0.0206679 -0.00184577 0.00878655 -0.0246379 -0.0279509 0.0127769 
0.00349919 -0.0102358 0.026643 0.0219084 -0.00938161 0.0271387 0.0134513 -0.00572242 0.0271053 
0.01988 -0.00658548 0.0269078 -0.0055848 -0.00262286 0.0267031 0.00446161 -0.0026273 0.0269464 
0.00839111 -0.00467737 0.0266185 0.0285673 -0.0043284 0.026728 0.019515 -0.00186515 0.0266059 
0.0110937 -0.0129354 0.0285432 -0.00154334 -0.0101732 0.0277899 0.00706869 -0.0124446 0.0271832 
0.016809 -0.0109745 0.0291221 0.0064568 -0.00768496 0.0275597 0.011844 -0.00976446 0.0274977 
0.0158248 -0.00806689 0.0281802 -0.00705797 -0.00547328 0.0287646 -0.00367241 -0.00516981 0.0289898 
0.00349982 -0.0070736 0.0276922 0.0227121 -0.00706899 0.0294131 0.0271361 -0.00566692 0.0290728 
-0.00978838 -0.002504 0.0284809 -0.000521577 -0.00334463 0.0295885 0.00836173 -0.00282971 0.0290094 
0.0112205 -0.00349384 0.0276694 0.0245364 -0.00360176 0.0284972 0.0272796 -0.00218533 0.0291047 
-0.026695 -0.0152785 0.0347333 0.00654792 -0.0132181 0.0309648 0.0103648 -0.0132939 0.0319264 
0.0137241 -0.0100998 0.0300055 0.000578021 -0.00905996 0.0312087 0.00600125 -0.00958303 0.0303714 
0.00936901 -0.00899664 0.030676 0.0183862 -0.00838178 0.0300161 0.00287227 -0.0062379 0.031456 
0.00663578 -0.00522061 0.0298761 0.015608 -0.00627634 0.0308188 0.0200825 -0.00540089 0.0298478 
-0.00661758 -0.00498749 0.0319253 -0.00229182 -0.00409767 0.0320367 0.0233522 -0.00458587 0.0319944 
-0.00569476 -0.00203973 0.0306192 0.0150257 -0.00243068 0.0300406 0.0196131 -0.00227081 0.0313663 
0.0041859 -0.0127503 0.0327706 0.00692926 -0.010494 0.0335978 -0.00376229 -0.00833338 0.0323668 
0.00231845 -0.00865902 0.0336742 0.0103748 -0.00771657 0.0335969 0.0139207 -0.00880097 0.0332613 
0.0216941 -0.00991844 0.0322611 -0.000430001 -0.00660907 0.0326616 0.00755183 -0.00643588 0.0332188 
0.00639831 -0.00258572 0.0329637 0.0110749 -0.00257683 0.0325819 0.0161083 -0.00401193 0.0327407 
0.0286865 -0.00314983 0.0322982 -0.00961872 -0.00207077 0.032855 0.00163857 -0.00168436 0.0323959 
0.0250395 -0.00175307 0.0325048 0.00100657 -0.000225552 0.00949883 -0.00957041 0.000201042 0.00173092 
-0.00766855 0.00218482 0.00253289 -0.00359304 0.00211483 0.00158555 0.0140183 0.000151078 0.00204575 
0.0164511 0.00156633 0.00154226 0.0214721 0.00168738 0.00227953 0.0363729 0.00219508 0.00147783 
-0.0101976 0.00295178 0.00148464 -0.00571613 0.00404788 0.00148883 0.0161042 0.00430336 0.00222916 
0.0249271 0.00339916 0.00146686 0.0273671 0.00455105 0.00233068 -0.00639131 0.00686581 0.00156924 
0.000532217 0.00605126 0.00164156 0.0114472 0.00705905 0.00148976 0.0133859 0.00517486 0.00246916 
0.0183408 0.00590156 0.00147797 0.00125517 0.00879823 0.0015282 0.00899636 0.00863066 0.00149746 
0.0115122 0.00991581 0.0015672 0.0332727 0.00820066 0.00190046 -0.0119454 0.0103243 0.00224029 
-0.00976974 0.0120204 0.00150148 -0.00704774 0.0114643 0.00220467 -0.00368269 0.0100672 0.00224079 
-0.000971445 0.0105802 0.00145855 0.00154183 0.0123081 0.00254727 0.00356498 0.0103054 0.00226711 
0.00627379 0.0110592 0.00158666 0.00912586 0.011501 0.00159418 0.0140383 0.0111893 0.0019005 
0.0192894 0.0119882 0.001961 0.0241266 0.0116332 0.00195194 0.0265546 0.0101699 0.0015652 
0.0293701 0.0106043 0.00145849 -0.0142869 0.0144745 0.00203098 -0.0114745 0.0141619 0.00224828 
-0.00876857 0.0147025 0.00148556 0.00424507 0.0130345 0.00190614 0.00954837 0.0143276 0.00182254 
0.0168634 0.0134127 0.00146492 0.0212656 0.0140569 0.00199023 0.0241065 0.0144651 0.00168659 
0.0266045 0.0130362 0.00169343 0.029036 0.014506 0.00151802 0.0311896 0.0127083 0.0019226 
0.002455 0.0152155 0.0015621 0.00854591 0.0169937 0.00151497 0.014758 0.0153075 0.00181369 
[...]
POINT_DATA 1000
FIELD FieldData 7
id 1 1000 int
18 10 49 266 25 280 297 263 22 
12 290 285 53 3 36 282 268 251 
277 295 37 48 21 9 32 302 17 
2 16 30 46 15 39 141 104 38 
50 33 7 19 274 309 247 191 43 
107 235 6 138 164 248 24 41 254 
1 252 52 262 301 298 256 520 296 
272 27 58 306 258 56 13 45 294 
264 260 40 83 259 270 253 28 287 
278 31 4 281 305 34 65 23 51 
304 205 47 308 265 44 8 5 273 
289 261 292 29 291 54 303 11 35 
42 14 279 26 267 558 504 531 501 
549 524 508 548 552 257 293 534 528 
286 284 503 507 255 283 275 300 269 
556 307 529 276 536 158 299 288 554 
515 535 544 526 518 521 502 525 522 
540 542 532 512 519 506 545 539 517 
513 527 541 510 271 547 511 551 509 
543 555 516 546 533 538 523 553 530 
505 537 557 550 514 20 769 803 758 
800 806 764 783 788 790 766 761 789 
782 776 774 797 784 757 796 763 767 
804 753 799 793 752 807 57 810 773 
802 765 787 755 786 798 762 791 772 
794 759 785 771 754 770 775 805 768 
781 777 795 751 778 808 756 760 780 
801 792 779 809 648 193 339 102 378 
55 186 160 357 199 161 131 242 89 
429 112 314 331 69 63 206 433 455 
227 229 237 118 145 243 123 116 211 
238 157 130 149 178 223 175 204 84 
62 155 203 165 80 169 183 472 154 
249 179 222 90 194 310 120 87 332 
82 86 127 182 110 64 430 105 208 
117 407 404 75 231 399 174 159 184 
77 103 195 484 367 124 98 236 360 
151 219 177 143 239 156 487 431 392 
496 190 139 95 114 233 91 200 416 
397 323 113 389 482 434 67 72 66 
136 393 214 499 209 344 202 330 328 
218 363 96 232 359 423 94 212 445 
413 119 384 460 425 234 419 313 101 
85 122 73 246 213 189 147 99 92 
317 128 210 220 241 180 352 448 142 
185 88 198 150 61 100 408 166 428 
415 78 490 93 311 163 462 492 346 
427 471 387 146 59 221 240 115 201 
385 483 394 391 126 245 196 226 109 
106 412 495 379 465 347 435 140 436 
97 376 366 315 464 491 188 341 451 
167 463 418 402 60 390 447 349 388 
79 162 225 176 439 224 153 334 76 
121 197 81 148 459 125 329 640 401 
168 370 320 134 192 111 207 443 457 
369 132 477 383 685 679 698 449 486 
468 382 129 68 655 678 365 380 724 
452 450 454 338 563 335 398 727 438 
173 172 135 355 362 250 333 358 475 
707 498 152 70 466 456 343 476 350 
473 215 405 181 342 470 396 622 340 
494 74 480 137 244 368 373 461 570 
411 377 337 420 598 348 230 371 386 
674 409 406 414 481 474 722 714 395 
336 444 467 319 318 400 322 728 364 
702 479 485 750 618 432 356 740 437 
422 592 381 616 71 442 170 228 372 
458 326 353 735 325 603 613 441 749 
709 695 469 642 632 703 417 440 747 
645 701 566 673 629 579 670 593 738 
730 680 316 656 611 664 607 453 493 
619 718 625 410 446 626 606 354 217 
108 403 489 682 654 561 609 650 692 
562 361 497 421 488 599 624 700 424 
710 723 634 748 321 715 327 312 578 
585 588 743 375 672 691 697 594 660 
586 587 741 581 595 575 576 620 604 
651 644 590 559 560 628 662 734 608 
615 631 686 564 690 500 171 426 696 
693 638 652 565 574 573 571 577 601 
909 649 717 675 732 596 689 688 647 
711 659 731 744 627 705 589 666 569 
669 582 637 653 658 657 591 584 374 
345 671 736 580 719 683 742 324 617 
610 721 745 568 583 636 713 478 646 
733 739 694 676 614 667 665 737 725 
600 621 712 597 643 687 716 602 661 
720 708 746 639 681 623 635 668 641 
729 699 612 704 567 663 572 351 633 
684 726 677 630 605 706 216 144 133 
187 876 927 981 992 862 961 915 890 
835 843 901 979 856 924 917 912 859 
982 828 973 834 970 857 905 893 988 
875 885 818 989 821 860 922 929 959 
921 967 916 833 837 847 855 935 871 
814 910 813 863 943 870 883 866 951 
914 867 824 897 976 957 949 881 963 
948 968 902 933 845 993 852 889 868 
822 987 925 819 947 940 952 986 811 
978 848 906 898 839 878 919 945 974 
886 984 971 907 841 840 900 931 911 
937 817 930 964 936 895 812 953 990 
873 954 950 934 894 966 977 826 844 
904 923 836 816 838 944 865 965 899 
854 827 830 858 874 879 913 991 939 
853 861 932 877 825 896 997 941 869 
942 882 891 864 985 926 903 975 849 
998 872 842 888 851 969 983 823 955 
920 908 846 815 1000 960 938 884 995 
956 996 994 829 880 831 918 820 980 
999 972 887 832 892 962 850 946 928 
958 
type 1 1000 int
1 1 1 1 1 1 1 1 1 
1 1 1 1 1 1 1 1 1 
1 1 1 1 1 1 1 1 1 
1 1 1 1 1 1 1 1 1 
1 1 1 1 1 1 1 1 1 
1 1 1 1 1 1 1 1 1 
1 1 1 1 1 1 1 1 1 
1 1 1 1 1 1 1 1 1 
1 1 1 1 1 1 1 1 1 
1 1 1 1 1 1 1 1 1 
1 1 1 1 1 1 1 1 1 
1 1 1 1 1 1 1 1 1 
1 1 1 1 1 1 1 1 1 
1 1 1 1 1 1 1 1 1 
1 1 1 1 1 1 1 1 1 
1 1 1 1 1 1 1 1 1 
1 1 1 1 1 1 1 1 1 
1 1 1 1 1 1 1 1 1 
1 1 1 1 1 1 1 1 1 
1 1 1 1 1 1 1 1 1 
1 1 1 1 1 1 1 1 1 
1 1 1 1 1 1 1 1 1 
1 1 1 1 1 1 1 1 1 
1 1 1 1 1 1 1 1 1 
1 1 1 1 1 1 1 1 1 
1 1 1 1 1 1 1 1 1 
1 1 1 1 1 1 1 1 1 
1 1 1 1 1 1 1 1 1 
1 1 1 1 1 1 1 1 1 
1 1 1 1 1 1 1 1 1 
1 1 1 1 1 1 1 1 1 
1 1 1 1 1 1 1 1 1 
1 1 1 1 1 1 1 1 1 
1 1 1 1 1 1 1 1 1 
1 1 1 1 1 1 1 1 1 
1 1 1 1 1 1 1 1 1 
1 1 1 1 1 1 1 1 1 
1 1 1 1 1 1 1 1 1 
1 1 1 1 1 1 1 1 1 
1 1 1 1 1 1 1 1 1 
1 1 1 1 1 1 1 1 1 
1 1 1 1 1 1 1 1 1 
1 1 1 1 1 1 1 1 1 
1 1 1 1 1 1 1 1 1 
1 1 1 1 1 1 1 1 1 
1 1 1 1 1 1 1 1 1 
1 1 1 1 1 1 1 1 1 
1 1 1 1 1 1 1 1 1 
1 1 1 1 1 1 1 1 1 
1 1 1 1 1 1 1 1 1 
1 1 1 1 1 1 1 1 1 
1 1 1 1 1 1 1 1 1 
1 1 1 1 1 1 1 1 1 
1 1 1 1 1 1 1 1 1 
1 1 1 1 1 1 1 1 1 
1 1 1 1 1 1 1 1 1 
1 1 1 1 1 1 1 1 1 
1 1 1 1 1 1 1 1 1 
1 1 1 1 1 1 1 1 1 
1 1 1 1 1 1 1 1 1 
1 1 1 1 1 1 1 1 1 
1 1 1 1 1 1 1 1 1 
1 1 1 1 1 1 1 1 1 
1 1 1 1 1 1 1 1 1 
1 1 1 1 1 1 1 1 1 
1 1 1 1 1 1 1 1 1 
1 1 1 1 1 1 1 1 1 
1 1 1 1 1 1 1 1 1 
1 1 1 1 1 1 1 1 1 
1 1 1 1 1 1 1 1 1 
1 1 1 1 1 1 1 1 1 
1 1 1 1 1 1 1 1 1 
1 1 1 1 1 1 1 1 1 
1 1 1 1 1 1 1 1 1 
1 1 1 1 1 1 1 1 1 
1 1 1 1 1 1 1 1 1 
1 1 1 1 1 1 1 1 1 
1 1 1 1 1 1 1 1 1 
1 1 1 1 1 1 1 1 1 
1 1 1 1 1 1 1 1 1 
1 1 1 1 1 1 1 1 1 
1 1 1 1 1 1 1 1 1 
1 1 1 1 1 1 1 1 1 
1 1 1 1 1 1 1 1 1 
1 1 1 1 1 1 1 1 1 
1 1 1 1 1 1 1 1 1 
1 1 1 1 1 1 1 1 1 
1 1 1 1 1 1 1 1 1 
1 1 1 1 1 1 1 1 1 
1 1 1 1 1 1 1 1 1 
1 1 1 1 1 1 1 1 1 
1 1 1 1 1 1 1 1 1 
1 1 1 1 1 1 1 1 1 
1 1 1 1 1 1 1 1 1 
1 1 1 1 1 1 1 1 1 
1 1 1 1 1 1 1 1 1 
1 1 1 1 1 1 1 1 1 
1 1 1 1 1 1 1 1 1 
1 1 1 1 1 1 1 1 1 
1 1 1 1 1 1 1 1 1 
1 1 1 1 1 1 1 1 1 
1 1 1 1 1 1 1 1 1 
1 1 1 1 1 1 1 1 1 
1 1 1 1 1 1 1 1 1 
1 1 1 1 1 1 1 1 1 
1 1 1 1 1 1 1 1 1 
1 1 1 1 1 1 1 1 1 
1 1 1 1 1 1 1 1 1 
1 1 1 1 1 1 1 1 1 
1 1 1 1 1 1 1 1 1 
1 1 1 1 1 1 1 1 1 
1 
i 3 1000 int
0 0 0 0 0 0 0 0 0 
0 0 0 0 0 0 0 0 0 
0 0 0 0 0 0 0 0 0 
0 0 0 0 0 0 0 0 0 
0 0 0 0 0 0 0 0 0 
0 0 0 0 0 0 0 0 0 
0 0 0 0 0 0 0 0 0 
0 0 0 0 0 0 0 0 0 
0 0 0 0 0 0 0 0 0 
0 0 0 0 0 0 0 0 0 
0 0 0 0 0 0 0 0 0 
0 0 0 0 0 0 0 0 0 
0 0 0 0 0 0 0 0 0 
0 0 0 0 0 0 0 0 0 
0 0 0 0 0 0 0 0 0 
0 0 0 0 0 0 0 0 0 
0 0 0 0 0 0 0 0 0 
0 0 0 0 0 0 0 0 0 
0 0 0 0 0 0 0 0 0 
0 0 0 0 0 0 0 0 0 
0 0 0 0 0 0 0 0 0 
0 0 0 0 0 0 0 0 0 
0 0 0 0 0 0 0 0 0 
0 0 0 0 0 0 0 0 0 
0 0 0 0 0 0 0 0 0 
0 0 0 0 0 0 0 0 0 
0 0 0 0 0 0 0 0 0 
0 0 0 0 0 0 0 0 0 
0 0 0 0 0 0 0 0 0 
0 0 0 0 0 0 0 0 0 
0 0 0 0 0 0 0 0 0 
0 0 0 0 0 0 0 0 0 
0 0 0 0 0 0 0 0 0 
0 0 0 0 0 0 0 0 0 
0 0 0 0 0 0 0 0 0 
0 0 0 0 0 0 0 0 0 
0 0 0 0 0 0 0 0 0 
0 0 0 0 0 0 0 0 0 
0 0 0 0 0 0 0 0 0 
0 0 0 0 0 0 0 0 0 
0 0 0 0 0 0 0 0 0 
0 0 0 0 0 0 0 0 0 
0 0 0 0 0 0 0 0 0 
0 0 0 0 0 0 0 0 0 
0 0 0 0 0 0 0 0 0 
0 0 0 0 0 0 0 0 0 
0 0 0 0 0 0 0 0 0 
0 0 0 0 0 0 0 0 0 
0 0 0 0 0 0 0 0 0 
0 0 0 0 0 0 0 0 0 
0 0 0 0 0 0 0 0 0 
0 0 0 0 0 0 0 0 0 
0 0 0 0 0 0 0 0 0 
0 0 0 0 0 0 0 0 0 
0 0 0 0 0 0 0 0 0 
0 0 0 0 0 0 0 0 0 
0 0 0 0 0 0 0 0 0 
0 0 0 0 0 0 0 0 0 
0 0 0 0 0 0 0 0 0 
0 0 0 0 0 0 0 0 0 
0 0 0 0 0 0 0 0 0 
0 0 0 0 0 0 0 0 0 
0 0 0 0 0 0 0 0 0 
0 0 0 0 0 0 0 0 0 
0 0 0 0 0 0 0 0 0 
0 0 0 0 0 0 0 0 0 
0 0 0 0 0 0 0 0 0 
0 0 0 0 0 0 0 0 0 
0 0 0 0 0 0 0 0 0 
0 0 0 0 0 0 0 0 0 
0 0 0 0 0 0 0 0 0 
0 0 0 0 0 0 0 0 0 
0 0 0 0 0 0 0 0 0 
0 0 0 0 0 0 0 0 0 
0 0 0 0 0 0 0 0 0 
0 0 0 0 0 0 0 0 0 
0 0 0 0 0 0 0 0 0 
0 0 0 0 0 0 0 0 0 
0 0 0 0 0 0 0 0 0 
0 0 0 0 0 0 0 0 0 
0 0 0 0 0 0 0 0 0 
0 0 0 0 0 0 0 0 0 
0 0 0 0 0 0 0 0 0 
0 0 0 0 0 0 0 0 0 
0 0 0 0 0 0 0 0 0 
0 0 0 0 0 0 0 0 0 
0 0 0 0 0 0 0 0 0 
0 0 0 0 0 0 0 0 0 
0 0 0 0 0 0 0 0 0 
0 0 0 0 0 0 0 0 0 
0 0 0 0 0 0 0 0 0 
0 0 0 0 0 0 0 0 0 
0 0 0 0 0 0 0 0 0 
0 0 0 0 0 0 0 0 0 
0 0 0 0 0 0 0 0 0 
0 0 0 0 0 0 0 0 0 
0 0 0 0 0 0 0 0 0 
0 0 0 0 0 0 0 0 0 
0 0 0 0 0 0 0 0 0 
0 0 0 0 0 0 0 0 0 
0 0 0 0 0 0 0 0 0 
0 0 0 0 0 0 0 0 0 
0 0 0 0 0 0 0 0 0 
0 0 0 0 0 0 0 0 0 
0 0 0 0 0 0 0 0 0 
0 0 0 0 0 0 0 0 0 
0 0 0 0 0 0 0 0 0 
0 0 0 0 0 0 0 0 0 
0 0 0 0 0 0 0 0 0 
0 0 0 0 0 0 0 0 0 
0 0 0 0 0 0 0 0 0 
0 0 0 0 0 0 0 0 0 
0 0 0 0 0 0 0 0 0 
0 0 0 0 0 0 0 0 0 
0 0 0 0 0 0 0 0 0 
0 0 0 0 0 0 0 0 0 
0 0 0 0 0 0 0 0 0 
0 0 0 0 0 0 0 0 0 
0 0 0 0 0 0 0 0 0 
0 0 0 0 0 0 0 0 0 
0 0 0 0 0 0 0 0 0 
0 0 0 0 0 0 0 0 0 
0 0 0 0 0 0 0 0 0 
0 0 0 0 0 0 0 0 0 
0 0 0 0 0 0 0 0 0 
0 0 0 0 0 0 0 0 0 
0 0 0 0 0 0 0 0 0 
0 0 0 0 0 0 0 0 0 
0 0 0 0 0 0 0 0 0 
0 0 0 0 0 0 0 0 0 
0 0 0 0 0 0 0 0 0 
0 0 0 0 0 0 0 0 0 
0 0 0 0 0 0 0 0 0 
0 0 0 0 0 0 0 0 0 
0 0 0 0 0 0 0 0 0 
0 0 0 0 0 0 0 0 0 
0 0 0 0 0 0 0 0 0 
0 0 0 0 0 0 0 0 0 
0 0 0 0 0 0 0 0 0 
0 0 0 0 0 0 0 0 0 
0 0 0 0 0 0 0 0 0 
0 0 0 0 0 0 0 0 0 
0 0 0 0 0 0 0 0 0 
0 0 0 0 0 0 0 0 0 
0 0 0 0 0 0 0 0 0 
0 0 0 0 0 0 0 0 0 
0 0 0 0 0 0 0 0 0 
0 0 0 0 0 0 0 0 0 
0 0 0 0 0 0 0 0 0 
0 0 0 0 0 0 0 0 0 
0 0 0 0 0 0 0 0 0 
0 0 0 0 0 0 0 0 0 
0 0 0 0 0 0 0 0 0 
0 0 0 0 0 0 0 0 0 
0 0 0 0 0 0 0 0 0 
0 0 0 0 0 0 0 0 0 
0 0 0 0 0 0 0 0 0 
0 0 0 0 0 0 0 0 0 
0 0 0 0 0 0 0 0 0 
0 0 0 0 0 0 0 0 0 
0 0 0 0 0 0 0 0 0 
0 0 0 0 0 0 0 0 0 
0 0 0 0 0 0 0 0 0 
0 0 0 0 0 0 0 0 0 
0 0 0 0 0 0 0 0 0 
0 0 0 0 0 0 0 0 0 
0 0 0 0 0 0 0 0 0 
0 0 0 0 0 0 0 0 0 
0 0 0 0 0 0 0 0 0 
0 0 0 0 0 0 0 0 0 
0 0 0 0 0 0 0 0 0 
0 0 0 0 0 0 0 0 0 
0 0 0 0 0 0 0 0 0 
0 0 0 0 0 0 0 0 0 
0 0 0 0 0 0 0 0 0 
0 0 0 0 0 0 0 0 0 
0 0 0 0 0 0 0 0 0 
0 0 0 0 0 0 0 0 0 
0 0 0 0 0 0 0 0 0 
0 0 0 0 0 0 0 0 0 
0 0 0 0 0 0 0 0 0 
0 0 0 0 0 0 0 0 0 
0 0 0 0 0 0 0 0 0 
0 0 0 0 0 0 0 0 0 
0 0 0 0 0 0 0 0 0 
0 0 0 0 0 0 0 0 0 
0 0 0 0 0 0 0 0 0 
0 0 0 0 0 0 0 0 0 
0 0 0 0 0 0 0 0 0 
0 0 0 0 0 0 0 0 0 
0 0 0 0 0 0 0 0 0 
0 0 0 0 0 0 0 0 0 
0 0 0 0 0 0 0 0 0 
0 0 0 0 0 0 0 0 0 
0 0 0 0 0 0 0 0 0 
0 0 0 0 0 0 0 0 0 
0 0 0 0 0 0 0 0 0 
0 0 0 0 0 0 0 0 0 
0 0 0 0 0 0 0 0 0 
0 0 0 0 0 0 0 0 0 
0 0 0 0 0 0 0 0 0 
0 0 0 0 0 0 0 0 0 
0 0 0 0 0 0 0 0 0 
0 0 0 0 0 0 0 0 0 
0 0 0 0 0 0 0 0 0 
0 0 0 0 0 0 0 0 0 
0 0 0 0 0 0 0 0 0 
0 0 0 0 0 0 0 0 0 
0 0 0 0 0 0 0 0 0 
0 0 0 0 0 0 0 0 0 
0 0 0 0 0 0 0 0 0 
0 0 0 0 0 0 0 0 0 
0 0 0 0 0 0 0 0 0 
0 0 0 0 0 0 0 0 0 
0 0 0 0 0 0 0 0 0 
0 0 0 0 0 0 0 0 0 
0 0 0 0 0 0 0 0 0 
0 0 0 0 0 0 0 0 0 
0 0 0 0 0 0 0 0 0 
0 0 0 0 0 0 0 0 0 
0 0 0 0 0 0 0 0 0 
0 0 0 0 0 0 0 0 0 
0 0 0 0 0 0 0 0 0 
0 0 0 0 0 0 0 0 0 
0 0 0 0 0 0 0 0 0 
0 0 0 0 0 0 0 0 0 
0 0 0 0 0 0 0 0 0 
0 0 0 0 0 0 0 0 0 
0 0 0 0 0 0 0 0 0 
0 0 0 0 0 0 0 0 0 
0 0 0 0 0 0 0 0 0 
0 0 0 0 0 0 0 0 0 
0 0 0 0 0 0 0 0 0 
0 0 0 0 0 0 0 0 0 
0 0 0 0 0 0 0 0 0 
0 0 0 0 0 0 0 0 0 
0 0 0 0 0 0 0 0 0 
0 0 0 0 0 0 0 0 0 
0 0 0 0 0 0 0 0 0 
0 0 0 0 0 0 0 0 0 
0 0 0 0 0 0 0 0 0 
0 0 0 0 0 0 0 0 0 
0 0 0 0 0 0 0 0 0 
0 0 0 0 0 0 0 0 0 
0 0 0 0 0 0 0 0 0 
0 0 0 0 0 0 0 0 0 
0 0 0 0 0 0 0 0 0 
0 0 0 0 0 0 0 0 0 
0 0 0 0 0 0 0 0 0 
0 0 0 0 0 0 0 0 0 
0 0 0 0 0 0 0 0 0 
0 0 0 0 0 0 0 0 0 
0 0 0 0 0 0 0 0 0 
0 0 0 0 0 0 0 0 0 
0 0 0 0 0 0 0 0 0 
0 0 0 0 0 0 0 0 0 
0 0 0 0 0 0 0 0 0 
0 0 0 0 0 0 0 0 0 
0 0 0 0 0 0 0 0 0 
0 0 0 0 0 0 0 0 0 
0 0 0 0 0 0 0 0 0 
0 0 0 0 0 0 0 0 0 
0 0 0 0 0 0 0 0 0 
0 0 0 0 0 0 0 0 0 
0 0 0 0 0 0 0 0 0 
0 0 0 0 0 0 0 0 0 
0 0 0 0 0 0 0 0 0 
0 0 0 0 0 0 0 0 0 
0 0 0 0 0 0 0 0 0 
0 0 0 0 0 0 0 0 0 
0 0 0 0 0 0 0 0 0 
0 0 0 0 0 0 0 0 0 
0 0 0 0 0 0 0 0 0 
0 0 0 0 0 0 0 0 0 
0 0 0 0 0 0 0 0 0 
0 0 0 0 0 0 0 0 0 
0 0 0 0 0 0 0 0 0 
0 0 0 0 0 0 0 0 0 
0 0 0 0 0 0 0 0 0 
0 0 0 0 0 0 0 0 0 
0 0 0 0 0 0 0 0 0 
0 0 0 0 0 0 0 0 0 
0 0 0 0 0 0 0 0 0 
0 0 0 0 0 0 0 0 0 
0 0 0 0 0 0 0 0 0 
0 0 0 0 0 0 0 0 0 
0 0 0 0 0 0 0 0 0 
0 0 0 0 0 0 0 0 0 
0 0 0 0 0 0 0 0 0 
0 0 0 0 0 0 0 0 0 
0 0 0 0 0 0 0 0 0 
0 0 0 0 0 0 0 0 0 
0 0 0 0 0 0 0 0 0 
0 0 0 0 0 0 0 0 0 
0 0 0 0 0 0 0 0 0 
0 0 0 0 0 0 0 0 0 
0 0 0 0 0 0 0 0 0 
0 0 0 0 0 0 0 0 0 
0 0 0 0 0 0 0 0 0 
0 0 0 0 0 0 0 0 0 
0 0 0 0 0 0 0 0 0 
0 0 0 0 0 0 0 0 0 
0 0 0 0 0 0 0 0 0 
0 0 0 0 0 0 0 0 0 
0 0 0 0 0 0 0 0 0 
0 0 0 0 0 0 0 0 0 
0 0 0 0 0 0 0 0 0 
0 0 0 0 0 0 0 0 0 
0 0 0 0 0 0 0 0 0 
0 0 0 0 0 0 0 0 0 
0 0 0 0 0 0 0 0 0 
0 0 0 0 0 0 0 0 0 
0 0 0 0 0 0 0 0 0 
0 0 0 0 0 0 0 0 0 
0 0 0 0 0 0 0 0 0 
0 0 0 0 0 0 0 0 0 
0 0 0 0 0 0 0 0 0 
0 0 0 0 0 0 0 0 0 
0 0 0 0 0 0 0 0 0 
0 0 0 0 0 0 0 0 0 
0 0 0 0 0 0 0 0 0 
0 0 0 0 0 0 0 0 0 
0 0 0 0 0 0 0 0 0 
0 0 0 0 0 0 0 0 0 
0 0 0 0 0 0 0 0 0 
0 0 0 0 0 0 0 0 0 
0 0 0 0 0 0 0 0 0 
0 0 0 0 0 0 0 0 0 
0 0 0 0 0 0 0 0 0 
0 0 0 0 0 0 0 0 0 
0 0 0 0 0 0 0 0 0 
0 0 0 0 0 0 0 0 0 
0 0 0 0 0 0 0 0 0 
0 0 0 
v 3 1000 double
-0.28762537171 0.41999312765 -0.020181299461 0.0051058616442 -0.46784123304 0.026381328305 0.209633515 0.0485035578 0.1387636904 
0.13016508761 -0.048443767577 -0.0045215028934 0.14865366649 0.027567704351 0.15569920855 0.12418208122 0.074661532057 0.26402450816 
-0.10831433399 -0.0098085539142 -0.28873073318 0.012608328163 -0.061238832912 0.050399603183 0.037933037076 -0.019794304629 0.067007254239 
0.050976004178 -0.029730184086 0.047814697733 0.04606209209 -0.0075300279044 0.058040629882 0.015100515278 0.0084809112501 0.0010020238233 
0.10316821846 0.069025982269 -0.30743412381 0.034516034098 -0.034425433369 -0.040382069338 -0.026650513937 -0.029285330503 0.017391099296 
0.076911998776 -0.0043875655593 -0.062436952118 0.0015829149418 -0.063719111026 0.0062615948461 0.044323054118 -0.01353741624 -0.006218837519 
0.039453954297 -0.049859397409 0.05318369375 -0.024249244832 -0.031347746633 0.10456097792 -0.01093748806 0.019617758823 0.010484974827 
0.042091269464 0.0638156088 -0.048879669045 -0.0081032264506 -0.011703826316 0.039419347294 0.01868799314 -0.051836553539 -0.023956469067 
0.036124402844 -0.043092042113 0.042437899852 -0.055843754352 -0.068236106051 0.034335041649 0.0086454887274 -0.021819986217 0.06998919278 
-0.040673780007 -0.04529270396 -0.017963309264 0.00086695828572 -0.051373316491 0.0081605631811 -0.047954079708 -0.021251063735 0.034432958614 
-0.028158100574 0.056875516821 -0.017668484904 0.059265523653 -0.018195785898 0.087945880631 0.070040988612 -0.056494531603 -0.019777134843 
0.038519204036 -0.085055094211 -0.067716751679 0.012944274317 -0.043790158414 0.010642382414 0.015109393976 -0.061616510601 0.025845459761 
-0.0151440008 -0.058898052357 0.061949639544 -0.020749380228 -0.029738694346 0.011968020636 0.038831441821 -0.046809130786 0.028902106269 
0.11143457091 -0.023099029959 0.024460315472 0.083687403008 -0.0069159343271 0.026403431113 0.12010460472 -0.028562044039 -0.0076318277075 
0.08067655484 -0.056426961105 -0.047569835429 -0.063606447409 -0.02604426606 -0.050306850876 -0.098142765125 0.050299604081 -0.060300353282 
-0.085646493734 0.013365200251 -0.029715032657 0.058755790418 -0.0049942080808 -0.062970079336 0.052658932792 0.0026622720587 0.039835947487 
-0.00029025930362 -0.0077065630865 0.010715703988 0.12858111577 -0.035573473863 0.04351985863 -0.062906848536 -0.045293309204 0.040596473955 
0.10591455887 -0.60467119309 -0.11794540205 0.11401733316 -0.55488962428 0.036923145162 0.12620996532 -0.022645387857 0.031912593645 
0.00085938892986 -0.0012304313567 -0.00086520881681 0.0026258144238 -0.072403455499 0.01431166873 0.040702314749 -0.0089233373116 0.19144187845 
-0.02766489518 0.058914006481 0.19273925853 -0.0099346092168 0.0096757812505 0.081362026736 -0.032001725152 -0.049195858818 0.0042632306257 
0.012997570476 -0.060579919542 0.075389965852 -0.088820377181 0.052788544509 0.034072867403 0.058876715543 -0.12666483404 -0.097925287485 
0.01800048909 0.02536353448 -0.055150987333 0.049834391368 0.055055761256 -0.018238144843 -0.018823706911 -0.012707675121 0.066453188888 
-0.024372275626 -0.050090631545 0.0085995867043 -0.037395821409 -0.030380476141 0.055100804921 4.6634984535e-05 0.05732659299 -0.15367066286 
-0.0049841795986 -0.0096172358832 0.014580871118 0.011727260872 -0.0084608185789 -0.0020079640909 0.037567219309 0.0025635665993 -0.01420495961 
-0.0074089604478 0.014781803886 0.032480779954 0.037344181844 -0.092434285767 -0.02482063481 -0.20252770559 -0.10237625703 -0.16413527301 
-0.23058237915 0.058700461915 -0.052519645849 -0.056136086951 -0.003925090595 0.060678633983 -0.029300416806 0.012288954092 0.039532483506 
-0.04667255197 -0.038754920525 0.029113608518 -0.020410032164 -0.040700270901 -0.0080192316303 -0.021406683886 -0.015898878376 -0.081747914481 
-0.028937046855 0.051896458875 -0.01823698047 -0.0094144484794 -0.034810099624 0.051943298501 0.055478566703 0.043668128598 0.15851379819 
0.070490714077 -0.011477595247 0.048293183974 0.15267602515 -0.17208348831 -0.49330242804 0.084111822943 -0.059486443276 -0.015057433324 
0.087844258661 -0.068633364457 -0.077145206742 -0.32422312336 -0.0080073545046 -0.11687117804 -0.272900278 -0.17580999828 -0.019179237285 
-0.031401427426 0.02238270569 -0.070594781261 -0.017423878174 0.032927846373 -0.055798733839 -0.065072346573 -0.045493768772 -0.1137762028 
-0.01853955923 0.0082582699872 -0.054119401775 -0.043054361397 0.033614405252 -0.046784315259 -0.017532360354 -0.035169133872 0.017736452235 
-0.0090498085516 -0.034957502319 0.048276211667 0.00032316428637 -0.030833327699 0.049417313604 -0.030595029017 -0.028635490467 0.02226121006 
0.0096736634736 -0.0096561284984 0.016616683029 0.053049811396 0.0036001343742 -0.0056598215989 0.12025057287 -0.062732775953 -0.015068679522 
-0.39561123613 -0.029289144341 0.073797147197 -0.044351911832 -0.0099105381644 -0.034009423195 0.0080466820682 0.034529254989 -0.054122234547 
0.059241294904 -0.044044879231 -0.1208542729 -0.056112820125 0.064917525707 -0.11781085449 -0.013404995525 -0.0030133499417 -0.0058935319549 
0.017467263526 -0.016911460533 0.015243868841 0.051682400611 -0.035745791431 -0.02259648812 0.15058306051 -0.093810282458 0.042009207532 
-0.028416054793 -0.042220364256 0.056745414405 -0.16420255543 -9.9408511591e-05 0.11601343709 -0.035284960017 -0.045570574667 0.12736457349 
0.017969718782 -0.11247717405 -0.1557062545 -0.060345496253 -0.072232850954 0.062358556861 0.024346194357 -0.080363748835 -0.015587812944 
-0.084750499912 -0.028742284497 -0.020564582488 -0.031491579363 -0.060903670824 0.12932048557 0.017852779259 0.040261993598 0.033190928118 
-0.010559425903 -0.031004079782 0.085689612338 -0.093989455831 0.17544902104 -0.090406768921 0.02107291109 -0.11469361626 -0.0069027994106 
-0.0046944259534 0.011517262647 -0.021490818701 -0.010393505106 0.02093339142 -0.040901658406 -0.068345817955 0.078946134296 -0.0089378040024 
-0.034130114312 -0.010422244182 0.0093137805215 0.019281351018 -0.0050020159065 -0.12327946317 -0.10002286181 0.033766077381 0.079304155114 
-0.056076180084 0.021221739514 0.035097808119 -0.011157656611 0.050040173779 -0.0005257210701 -0.048092013409 0.050673519545 -0.049107613575 
-0.039107283263 0.022858324174 -0.0080531210739 -0.033362058889 -0.062017135693 0.081646367006 0.0051831254532 -0.061882978891 0.059639491177 
0.0028939117477 0.047433947505 -0.011495737513 -0.0040056134328 0.028595096174 -0.031122448886 0.0068690506851 0.056417324585 -0.028635822934 
-0.014998750837 0.052328013587 -0.052618942074 0.10105457483 0.084176753971 -0.093903088919 -0.021461656964 -0.0082097169276 0.027622723041 
-0.019942132359 -0.027444179441 0.064717720591 -0.034185295754 -0.041083364218 0.018169947353 -0.029749868281 0.13472903998 -0.21145262325 
0.055211872689 -0.088063218064 0.055036151202 -0.039492134181 0.29021605923 -0.25466632414 -0.0031146100229 -0.0023187624773 -0.055339420249 
-0.13213763063 0.021889337357 -0.0016387287214 -0.079280480878 -0.061657824328 -0.0032694567994 -0.013036093549 0.040895669541 -0.00080443440945 
-0.11089645209 0.06275446096 -0.031905036115 -0.037943261547 -0.053531389239 0.055530151633 -0.037301501325 0.043573303852 0.0078650453019 
-0.081114792849 0.083217467879 -0.021514148687 -0.036016776361 0.08563135287 -0.014599488436 -0.071735223675 0.037711774057 0.018666694778 
-0.29407484832 0.012891267708 -0.047515307115 -0.066713047603 0.14236991288 -0.060003452855 -0.051234367963 0.049799341199 -0.13822888479 