# vtk DataFile Version 4.1
Generated by LIGGGHTS
ASCII
DATASET POLYDATA
POINTS 1000 float
0.0143094 -0.020147 0.0021343 0.00128037 -0.0169236 0.00152509 0.00481534 -0.016954 0.00302124 
0.0188972 -0.0138794 0.00229116 0.0216849 -0.0134655 0.00282596 0.000134093 -0.0150142 0.00334624 
0.0158637 -0.00999104 0.00319971 0.00400848 -0.0110029 0.00321834 0.007813 -0.00966621 0.00306097 
0.0133361 -0.00862915 0.00315925 0.016435 -0.0076665 0.00165372 0.0189461 -0.00727756 0.0029537 
0.0212413 -0.0106862 0.00323094 -0.0006995 -0.00611596 0.00186361 0.0052446 -0.00847181 0.00270447 
0.0141112 -0.00609758 0.00208856 0.0217241 -0.00792939 0.00267199 -0.0107629 -0.00305018 0.00356515 
-0.0066967 -0.00315371 0.00299512 0.00583099 -0.00437248 0.00208203 0.0106027 -0.00510852 0.00181367 
0.0188297 -0.00349998 0.00224155 -0.00892826 -0.00199067 0.0016526 0.0066678 -0.000585573 0.0032965 
0.0088864 -0.002218 0.00255428 0.0119858 -0.00261296 0.00177444 0.0137624 -6.0852e-05 0.00182803 
0.0216354 -0.00289912 0.00237941 0.0146322 -0.0125351 0.00351187 0.00556185 -0.0125006 0.00504388 
0.0105036 -0.0109244 0.00222725 -0.00335963 -0.00719575 0.00209787 0.0184501 -0.0112333 0.00329344 
0.0284111 -0.00815476 0.00494484 -0.00135104 -0.00786723 0.00401166 0.0112043 -0.0068811 0.00397943 
0.0283504 -0.00568182 0.00354206 8.3288e-05 -0.00545915 0.00454178 0.00742447 -0.00336117 0.00474665 
0.0111848 -0.00373059 0.00425916 0.0161372 -0.00421151 0.00289921 0.0228233 -0.00534246 0.00325445 
0.0255898 -0.00515548 0.0040763 -0.012986 -0.00137156 0.00296533 -0.01406 -0.00321075 0.00485905 
-0.00261026 -0.00141298 0.00339669 0.000161025 -0.000784112 0.00316203 0.0189012 -0.00085976 0.00332734 
0.0272294 -0.00313939 0.00287921 0.0294417 -0.00300663 0.00470158 0.0315693 -0.00178871 0.00322771 
-0.00298499 -0.0141388 0.00878081 0.00784397 -0.0119477 0.00663502 0.00490617 -0.0106593 0.00715817 
0.013482 -0.00525871 0.0046916 0.000979481 -0.00704459 0.00673072 -0.00266771 -0.000994697 0.0071333 
0.000258912 -0.00430634 0.00715854 0.0176052 -0.00247002 0.00532096 -0.000776259 -0.0023009 0.00540621 
-0.0119289 -0.00462044 0.012459 0.0204447 -0.00931293 0.0171837 -0.00567764 -0.00574567 0.0171753 
0.0262047 -0.00694784 0.0172093 0.0126515 -0.00323688 0.0173282 0.00401553 -0.00180714 0.0171117 
0.00811285 -0.0126997 0.0191468 0.00246058 -0.011993 0.0184979 0.00475761 -0.0101331 0.0176543 
0.0125665 -0.0118252 0.0178825 0.0174812 -0.0114592 0.0196002 0.000241667 -0.00999196 0.0189691 
0.00738483 -0.00847299 0.0184401 0.0113803 -0.00766339 0.0198306 0.0146435 -0.00952342 0.0188132 
0.0236103 -0.00806766 0.0200885 -0.000168241 -0.00678797 0.0186285 0.00455007 -0.00659164 0.018434 
0.0145403 -0.00500828 0.0194568 0.0190529 -0.00685491 0.0185666 0.00733822 -0.00345531 0.0199713 
0.0243015 -0.00308154 0.0178748 -0.00767912 -0.00239877 0.0180473 -0.00267515 -0.00186049 0.0193298 
0.0152281 -0.00168563 0.0186 0.0188427 -0.00160886 0.0188402 0.0278359 -0.00193898 0.0198987 
0.0108557 -0.0130225 0.0225113 0.0031002 -0.0119703 0.022104 0.0136911 -0.0118027 0.0208051 
0.000932189 -0.00830935 0.0221797 0.00531399 -0.00983203 0.020966 0.016268 -0.00845748 0.022375 
-0.00446412 -0.00705109 0.0204724 0.00634106 -0.00624058 0.0220709 0.0261811 -0.0060131 0.0208133 
-0.00152737 -0.00463245 0.0204856 0.00164698 -0.00428262 0.0202458 0.0128955 -0.00290099 0.0209446 
0.0212074 -0.00358288 0.0206187 -0.00508487 -0.00192815 0.0213072 0.0236412 -0.00198971 0.0216029 
-0.00135593 -0.0102451 0.0226113 0.00616146 -0.0118096 0.0233766 0.017761 -0.0106484 0.0239075 
0.0214977 -0.010071 0.0229929 0.0039457 -0.00887507 0.0235005 0.00883956 -0.00858141 0.0238279 
0.0118324 -0.00816733 0.0234823 0.0198474 -0.00616639 0.0233263 -0.00802451 -0.00390219 0.0228988 
-0.00397578 -0.00477323 0.0232604 0.0039497 -0.00372013 0.0228168 0.00839743 -0.00282044 0.0235454 
0.0113691 -0.0042154 0.0234729 0.0209844 -0.00301942 0.0240801 0.0275825 -0.00486151 0.0241409 
0.000871003 -0.00181731 0.0233249 0.0160105 -0.0017709 0.023274 0.027952 -0.00174946 0.0235771 
0.0023089 -0.011819 0.0383432 0.0107075 -0.0104178 0.0382289 0.020135 -0.0106972 0.0379711 
-0.00088254 -0.0083535 0.0383744 0.00450799 -0.00875778 0.0385395 -0.00515729 -0.00708521 0.0390504 
0.00695685 -0.00636324 0.0384679 0.00996765 -0.00560825 0.0379585 -0.00459424 -0.00310115 0.0391757 
0.000269919 -0.00253987 0.0381129 0.0139483 -0.00476567 0.0387471 0.0194432 -0.00398836 0.0382964 
0.0226114 -0.00453092 0.0390261 -0.00723867 -0.00161703 0.0381655 0.0293025 -0.00224623 0.038237 
0.0105373 -0.013162 0.0408448 0.0150534 -0.0126471 0.0398716 0.00171744 -0.00900392 0.0406174 
0.00951497 -0.0080642 0.0398457 0.012606 -0.00794626 0.0414255 0.0165476 -0.00889946 0.0411008 
0.0216972 -0.00880215 0.0414439 0.00252443 -0.00506457 0.0397703 0.0245803 -0.00726984 0.0403715 
-0.00723029 -0.00435769 0.0400581 0.00725789 -0.00349915 0.0397225 0.017108 -0.00300195 0.0407791 
0.0266755 -0.00272967 0.0416047 -0.0020623 -0.0018087 0.0407466 0.0137614 -0.00222457 0.0409963 
0.0226179 -0.0016597 0.0401265 0.00968051 -0.0133938 0.043846 0.00263912 -0.0118 0.0418929 
0.00620913 -0.0114518 0.0426862 0.0129948 -0.0124193 0.0427996 0.011493 -0.00983807 0.0443385 
0.0198704 -0.00990055 0.0443342 0.0240832 -0.00862879 0.0438958 -0.00583245 -0.00628172 0.0419817 
-0.00237281 -0.00745794 0.0429173 0.000554968 -0.0052981 0.0431959 0.00378837 -0.00716791 0.0426033 
0.00668328 -0.0057114 0.0422452 -0.00811056 -0.00275725 0.0426091 0.00976868 -0.0038265 0.0419673 
-0.00109251 -0.00203691 0.0437269 0.00226019 -0.00241906 0.0418962 0.0160463 -0.00162992 0.0440101 
0.0298767 -0.00217891 0.042647 -0.000353447 -0.0106154 0.045139 0.0175912 -0.0121567 0.0444237 
0.0135313 -0.00754705 0.0444862 0.0201626 -0.00670628 0.0450825 -0.005487 -0.00451522 0.0451249 
0.00933726 -0.00412522 0.0450344 0.0268537 -0.00447958 0.0445028 0.00414641 -0.00186365 0.0450667 
0.0206692 -0.0022492 0.0451341 0.00349919 -0.0102358 0.050367 0.00706869 -0.0124446 0.0509073 
0.0219084 -0.00938161 0.0508627 0.0134513 -0.00572242 0.0508294 0.01988 -0.00658548 0.0506318 
-0.0055848 -0.00262286 0.0504271 0.00446161 -0.0026273 0.0506704 0.00839111 -0.00467737 0.0503425 
0.0285673 -0.0043284 0.050452 0.019515 -0.00186515 0.0503299 0.0110937 -0.0129354 0.0522672 
-0.00154334 -0.0101732 0.0515139 0.016809 -0.0109745 0.0528461 0.0064568 -0.00768496 0.0512837 
0.011844 -0.00976446 0.0512217 0.0158248 -0.00806689 0.0519043 -0.00705797 -0.00547328 0.0524886 
-0.00367241 -0.00516981 0.0527138 0.00349982 -0.0070736 0.0514162 0.00663578 -0.00522061 0.0536001 
0.0200825 -0.00540089 0.0535718 0.0227121 -0.00706899 0.0531372 0.0271361 -0.00566692 0.0527968 
-0.00978838 -0.002504 0.052205 -0.000521577 -0.00334463 0.0533126 0.00836173 -0.00282971 0.0527334 
0.0112205 -0.00349384 0.0513934 0.0245364 -0.00360176 0.0522212 0.0272796 -0.00218533 0.0528287 
0.00654792 -0.0132181 0.0546889 0.0103648 -0.0132939 0.0556504 0.0137241 -0.0100998 0.0537295 
-0.00376229 -0.00833338 0.0560908 0.000578021 -0.00905996 0.0549328 0.00600125 -0.00958303 0.0540954 
0.00936901 -0.00899664 0.0544 0.0183862 -0.00838178 0.0537401 0.0216941 -0.00991844 0.0559852 
0.00287227 -0.0062379 0.05518 0.015608 -0.00627634 0.0545428 -0.00661758 -0.00498749 0.0556493 
-0.00229182 -0.00409767 0.0557607 0.0233522 -0.00458587 0.0557184 0.0286865 -0.00314983 0.0560222 
-0.00569476 -0.00203973 0.0543432 0.00163857 -0.00168436 0.0561199 0.0150257 -0.00243068 0.0537647 
0.0196131 -0.00227081 0.0550903 0.0041859 -0.0127503 0.0564946 0.00692926 -0.010494 0.0573219 
0.00231845 -0.00865902 0.0573983 0.0103748 -0.00771657 0.057321 0.0139207 -0.00880097 0.0569853 
-0.000430001 -0.00660907 0.0563856 0.00755183 -0.00643588 0.0569429 0.00639831 -0.00258572 0.0566878 
0.0110749 -0.00257683 0.0563059 0.0161083 -0.00401193 0.0564648 -0.00961872 -0.00207077 0.0565791 
0.0250395 -0.00175307 0.0562289 0.0219739 -5.38249e-05 0.00239615 -0.0046174 0.000433328 0.00256211 
0.019654 0.00159282 0.0020537 0.0278629 9.26255e-05 0.00334221 -0.00922688 0.00451841 0.00377619 
-0.000647979 0.00558953 0.00242485 0.022229 0.00278198 0.00227907 0.0248313 0.00363682 0.00149931 
0.0322122 0.00335844 0.0015716 -0.00853167 0.00728463 0.00378792 -0.00627962 0.00694037 0.0020658 
-0.00307873 0.00669686 0.00344239 0.000453092 0.00820779 0.00251709 0.0203253 0.00485949 0.00271781 
0.0221748 0.00682442 0.00178168 -0.00185895 0.00977505 0.00310134 0.0111027 0.00779201 0.00260516 
0.0284805 0.0098961 0.0023959 -0.00859339 0.0101477 0.00390848 0.00392024 0.0117239 0.0019266 
0.00592771 0.0101321 0.00314975 0.011357 0.010638 0.0024181 0.0136113 0.0117296 0.00384967 
0.0139716 0.00925698 0.00248795 0.0299402 0.0125295 0.00276943 0.0330069 0.0104897 0.00566218 
-0.0193229 0.0118401 0.00455217 -0.00860129 0.0128336 0.00292034 0.0016323 0.0133917 0.00175188 
0.0183491 0.0134264 0.00419999 0.0275899 0.0139204 0.00196796 0.0329376 0.0133291 0.00533103 
-0.00883388 0.016341 0.00194451 0.00257187 0.0168536 0.00178916 0.0115739 0.0153843 0.00325183 
0.0227342 0.0162157 0.00187415 0.0255481 0.0158952 0.00211647 0.0282385 0.0165841 0.0027864 
0.0020882 0.0194025 0.00298585 0.00938156 0.0167583 0.00447399 0.0162271 0.0196719 0.00340736 
0.019369 0.0191827 0.0035435 0.0231083 0.0190075 0.00151647 0.0256171 0.0194743 0.0028073 
-0.01359 0.0212893 0.00265117 -0.000519849 0.0204571 0.00340274 0.00224536 0.0222379 0.00252093 
0.00492595 0.0218643 0.0015756 0.0237834 0.0216197 0.00239731 -0.00574088 0.022222 0.00213516 
-0.00358374 0.0238404 0.00309215 0.0010234 0.0248244 0.00233024 0.00375256 0.0244618 0.00154825 
0.0144124 0.0227581 0.00203411 0.017158 0.0229171 0.0028055 -0.00498643 0.0285749 0.00419105 
-0.000511636 0.0275545 0.00252108 0.00233022 0.0273551 0.00273481 0.00976218 0.0264884 0.00211363 
0.0121009 0.0275593 0.00334146 0.0202296 0.0270494 0.00325766 -0.00780585 0.0286876 0.00372208 
-0.002828 0.0292401 0.00243067 0.00569568 0.0316052 0.00301311 0.0136113 0.0330294 0.00199229 
[...]
POINT_DATA 1000
FIELD FieldData 7
id 1 1000 int
18 24 10 3 27 41 56 49 22 
13 46 45 48 17 25 30 4 40 
29 16 50 7 51 104 44 38 55 
19 37 1 12 36 53 32 58 31 
9 2 35 8 33 15 21 23 83 
205 43 14 39 34 141 20 52 26 
5 28 11 47 42 54 57 294 302 
260 300 308 280 254 263 290 297 266 
251 295 285 264 253 268 269 273 265 
274 291 276 299 289 309 262 252 301 
298 256 257 270 278 305 255 287 271 
281 304 261 282 267 296 272 306 277 
258 284 259 293 283 275 286 307 292 
303 288 279 531 520 501 524 548 549 
528 532 506 536 517 556 512 529 554 
558 504 508 552 526 518 521 534 503 
507 545 513 527 541 557 547 551 515 
535 544 555 546 533 502 525 522 540 
542 519 539 505 510 550 511 509 543 
516 538 523 553 530 537 514 769 789 
803 758 800 806 764 783 788 790 766 
761 782 776 774 797 784 757 796 762 
772 763 767 804 753 799 793 752 807 
810 773 802 768 765 787 755 786 751 
798 791 794 759 785 801 771 779 754 
770 775 805 781 777 795 778 808 756 
760 780 792 809 164 191 186 65 214 
73 72 66 136 101 89 122 118 202 
131 237 63 149 128 145 243 206 189 
112 169 230 216 88 100 238 80 59 
223 120 180 222 90 146 110 84 126 
179 208 196 79 182 75 231 97 86 
106 184 77 140 159 143 98 236 151 
153 192 190 177 139 91 111 207 232 
107 235 909 138 6 247 199 102 209 
68 129 218 160 144 173 246 69 113 
212 119 242 234 248 85 220 161 99 
130 92 215 229 210 61 204 123 250 
213 147 157 165 78 93 74 244 150 
152 183 116 203 137 178 163 227 87 
211 62 155 109 201 64 249 82 245 
226 124 127 121 197 188 95 114 117 
168 162 225 103 195 105 133 81 176 
148 224 156 134 187 239 200 233 132 
67 96 158 193 172 185 198 108 70 
142 166 181 241 175 194 154 221 240 
115 60 71 167 174 219 228 170 76 
171 125 94 135 217 416 469 499 380 
423 398 384 433 455 352 317 405 497 
492 428 409 462 472 471 385 322 444 
366 447 418 484 334 459 397 369 434 
383 449 378 452 338 331 413 313 354 
453 493 333 466 396 448 343 476 350 
473 488 342 415 490 368 427 387 467 
386 332 394 412 310 379 436 364 376 
399 430 451 367 463 349 437 353 360 
325 500 370 320 392 487 486 323 357 
440 482 344 365 328 363 359 429 382 
314 460 438 454 362 475 425 498 374 
403 470 456 340 361 327 408 312 373 
346 411 348 371 406 481 465 377 395 
319 318 400 347 435 404 485 341 458 
315 381 402 432 326 439 329 351 401 
443 339 477 393 457 468 417 389 330 
450 335 316 419 355 489 445 410 345 
358 446 311 421 324 424 337 494 321 
480 375 478 461 483 420 414 474 391 
336 407 495 479 464 390 491 356 442 
388 422 426 372 496 441 431 679 698 
703 695 747 655 678 566 670 563 656 
727 593 619 718 625 707 606 682 654 
650 599 624 700 713 742 585 598 743 
672 691 586 590 674 576 702 618 604 
734 616 638 696 574 735 571 613 640 
749 649 642 632 685 647 711 645 724 
579 738 607 591 584 736 561 562 683 
610 721 710 723 622 634 748 715 578 
570 714 739 697 722 581 595 575 662 
644 559 728 628 750 740 560 592 631 
686 564 690 693 652 573 603 577 709 
601 648 675 688 633 701 596 673 629 
659 730 680 589 611 664 669 582 653 
658 609 657 626 677 671 630 637 692 
719 605 617 745 568 583 636 614 660 
588 667 594 725 600 587 741 597 643 
620 651 608 602 708 615 746 639 681 
668 565 572 732 689 717 731 744 627 
684 705 666 569 726 580 706 737 646 
733 694 676 665 621 712 687 716 661 
720 623 635 641 729 699 612 704 567 
663 876 927 981 992 862 961 915 890 
835 843 901 979 856 924 917 912 859 
951 982 828 902 973 834 970 857 905 
893 988 875 885 818 925 811 989 821 
860 922 929 959 921 967 916 833 837 
847 855 935 871 814 910 813 863 943 
870 883 866 914 867 824 897 976 957 
949 881 963 948 968 933 845 993 852 
889 868 822 987 965 819 947 940 952 
986 858 978 848 906 898 839 878 919 
945 974 886 984 971 907 841 840 900 
931 911 937 864 817 930 964 936 895 
812 953 990 873 954 950 908 846 934 
894 966 977 826 844 904 923 836 816 
838 944 831 865 899 854 827 830 887 
874 879 913 991 850 939 853 861 932 
877 825 896 997 941 869 942 882 891 
985 926 903 975 849 998 872 842 888 
851 969 983 823 955 920 815 1000 960 
938 884 995 956 996 994 829 880 918 
820 980 999 972 832 892 962 946 928 
958 
type 1 1000 int
1 1 1 1 1 1 1 1 1 
1 1 1 1 1 1 1 1 1 
1 1 1 1 1 1 1 1 1 
1 1 1 1 1 1 1 1 1 
1 1 1 1 1 1 1 1 1 
1 1 1 1 1 1 1 1 1 
1 1 1 1 1 1 1 1 1 
1 1 1 1 1 1 1 1 1 
1 1 1 1 1 1 1 1 1 
1 1 1 1 1 1 1 1 1 
1 1 1 1 1 1 1 1 1 
1 1 1 1 1 1 1 1 1 
1 1 1 1 1 1 1 1 1 
1 1 1 1 1 1 1 1 1 
1 1 1 1 1 1 1 1 1 
1 1 1 1 1 1 1 1 1 
1 1 1 1 1 1 1 1 1 
1 1 1 1 1 1 1 1 1 
1 1 1 1 1 1 1 1 1 
1 1 1 1 1 1 1 1 1 
1 1 1 1 1 1 1 1 1 
1 1 1 1 1 1 1 1 1 
1 1 1 1 1 1 1 1 1 
1 1 1 1 1 1 1 1 1 
1 1 1 1 1 1 1 1 1 
1 1 1 1 1 1 1 1 1 
1 1 1 1 1 1 1 1 1 
1 1 1 1 1 1 1 1 1 
1 1 1 1 1 1 1 1 1 
1 1 1 1 1 1 1 1 1 
1 1 1 1 1 1 1 1 1 
1 1 1 1 1 1 1 1 1 
1 1 1 1 1 1 1 1 1 
1 1 1 1 1 1 1 1 1 
1 1 1 1 1 1 1 1 1 
1 1 1 1 1 1 1 1 1 
1 1 1 1 1 1 1 1 1 
1 1 1 1 1 1 1 1 1 
1 1 1 1 1 1 1 1 1 
1 1 1 1 1 1 1 1 1 
1 1 1 1 1 1 1 1 1 
1 1 1 1 1 1 1 1 1 
1 1 1 1 1 1 1 1 1 
1 1 1 1 1 1 1 1 1 
1 1 1 1 1 1 1 1 1 
1 1 1 1 1 1 1 1 1 
1 1 1 1 1 1 1 1 1 
1 1 1 1 1 1 1 1 1 
1 1 1 1 1 1 1 1 1 
1 1 1 1 1 1 1 1 1 
1 1 1 1 1 1 1 1 1 
1 1 1 1 1 1 1 1 1 
1 1 1 1 1 1 1 1 1 
1 1 1 1 1 1 1 1 1 
1 1 1 1 1 1 1 1 1 
1 1 1 1 1 1 1 1 1 
1 1 1 1 1 1 1 1 1 
1 1 1 1 1 1 1 1 1 
1 1 1 1 1 1 1 1 1 
1 1 1 1 1 1 1 1 1 
1 1 1 1 1 1 1 1 1 
1 1 1 1 1 1 1 1 1 
1 1 1 1 1 1 1 1 1 
1 1 1 1 1 1 1 1 1 
1 1 1 1 1 1 1 1 1 
1 1 1 1 1 1 1 1 1 
1 1 1 1 1 1 1 1 1 
1 1 1 1 1 1 1 1 1 
1 1 1 1 1 1 1 1 1 
1 1 1 1 1 1 1 1 1 
1 1 1 1 1 1 1 1 1 
1 1 1 1 1 1 1 1 1 
1 1 1 1 1 1 1 1 1 
1 1 1 1 1 1 1 1 1 
1 1 1 1 1 1 1 1 1 
1 1 1 1 1 1 1 1 1 
1 1 1 1 1 1 1 1 1 
1 1 1 1 1 1 1 1 1 
1 1 1 1 1 1 1 1 1 
1 1 1 1 1 1 1 1 1 
1 1 1 1 1 1 1 1 1 
1 1 1 1 1 1 1 1 1 
1 1 1 1 1 1 1 1 1 
1 1 1 1 1 1 1 1 1 
1 1 1 1 1 1 1 1 1 
1 1 1 1 1 1 1 1 1 
1 1 1 1 1 1 1 1 1 
1 1 1 1 1 1 1 1 1 
1 1 1 1 1 1 1 1 1 
1 1 1 1 1 1 1 1 1 
1 1 1 1 1 1 1 1 1 
1 1 1 1 1 1 1 1 1 
1 1 1 1 1 1 1 1 1 
1 1 1 1 1 1 1 1 1 
1 1 1 1 1 1 1 1 1 
1 1 1 1 1 1 1 1 1 
1 1 1 1 1 1 1 1 1 
1 1 1 1 1 1 1 1 1 
1 1 1 1 1 1 1 1 1 
1 1 1 1 1 1 1 1 1 
1 1 1 1 1 1 1 1 1 
1 1 1 1 1 1 1 1 1 
1 1 1 1 1 1 1 1 1 
1 1 1 1 1 1 1 1 1 
1 1 1 1 1 1 1 1 1 
1 1 1 1 1 1 1 1 1 
1 1 1 1 1 1 1 1 1 
1 1 1 1 1 1 1 1 1 
1 1 1 1 1 1 1 1 1 
1 1 1 1 1 1 1 1 1 
1 1 1 1 1 1 1 1 1 
1 
i 3 1000 int
0 0 0 0 0 0 0 0 0 
0 0 0 0 0 0 0 0 0 
0 0 0 0 0 0 0 0 0 
0 0 0 0 0 0 0 0 0 
0 0 0 0 0 0 0 0 0 
0 0 0 0 0 0 0 0 0 
0 0 0 0 0 0 0 0 0 
0 0 0 0 0 0 0 0 0 
0 0 0 0 0 0 0 0 0 
0 0 0 0 0 0 0 0 0 
0 0 0 0 0 0 0 0 0 
0 0 0 0 0 0 0 0 0 
0 0 0 0 0 0 0 0 0 
0 0 0 0 0 0 0 0 0 
0 0 0 0 0 0 0 0 0 
0 0 0 0 0 0 0 0 0 
0 0 0 0 0 0 0 0 0 
0 0 0 0 0 0 0 0 0 
0 0 0 0 0 0 0 0 0 
0 0 0 0 0 0 0 0 0 
0 0 0 0 0 0 0 0 0 
0 0 0 0 0 0 0 0 0 
0 0 0 0 0 0 0 0 0 
0 0 0 0 0 0 0 0 0 
0 0 0 0 0 0 0 0 0 
0 0 0 0 0 0 0 0 0 
0 0 0 0 0 0 0 0 0 
0 0 0 0 0 0 0 0 0 
0 0 0 0 0 0 0 0 0 
0 0 0 0 0 0 0 0 0 
0 0 0 0 0 0 0 0 0 
0 0 0 0 0 0 0 0 0 
0 0 0 0 0 0 0 0 0 
0 0 0 0 0 0 0 0 0 
0 0 0 0 0 0 0 0 0 
0 0 0 0 0 0 0 0 0 
0 0 0 0 0 0 0 0 0 
0 0 0 0 0 0 0 0 0 
0 0 0 0 0 0 0 0 0 
0 0 0 0 0 0 0 0 0 
0 0 0 0 0 0 0 0 0 
0 0 0 0 0 0 0 0 0 
0 0 0 0 0 0 0 0 0 
0 0 0 0 0 0 0 0 0 
0 0 0 0 0 0 0 0 0 
0 0 0 0 0 0 0 0 0 
0 0 0 0 0 0 0 0 0 
0 0 0 0 0 0 0 0 0 
0 0 0 0 0 0 0 0 0 
0 0 0 0 0 0 0 0 0 
0 0 0 0 0 0 0 0 0 
0 0 0 0 0 0 0 0 0 
0 0 0 0 0 0 0 0 0 
0 0 0 0 0 0 0 0 0 
0 0 0 0 0 0 0 0 0 
0 0 0 0 0 0 0 0 0 
0 0 0 0 0 0 0 0 0 
0 0 0 0 0 0 0 0 0 
0 0 0 0 0 0 0 0 0 
0 0 0 0 0 0 0 0 0 
0 0 0 0 0 0 0 0 0 
0 0 0 0 0 0 0 0 0 
0 0 0 0 0 0 0 0 0 
0 0 0 0 0 0 0 0 0 
0 0 0 0 0 0 0 0 0 
0 0 0 0 0 0 0 0 0 
0 0 0 0 0 0 0 0 0 
0 0 0 0 0 0 0 0 0 
0 0 0 0 0 0 0 0 0 
0 0 0 0 0 0 0 0 0 
0 0 0 0 0 0 0 0 0 
0 0 0 0 0 0 0 0 0 
0 0 0 0 0 0 0 0 0 
0 0 0 0 0 0 0 0 0 
0 0 0 0 0 0 0 0 0 
0 0 0 0 0 0 0 0 0 
0 0 0 0 0 0 0 0 0 
0 0 0 0 0 0 0 0 0 
0 0 0 0 0 0 0 0 0 
0 0 0 0 0 0 0 0 0 
0 0 0 0 0 0 0 0 0 
0 0 0 0 0 0 0 0 0 
0 0 0 0 0 0 0 0 0 
0 0 0 0 0 0 0 0 0 
0 0 0 0 0 0 0 0 0 
0 0 0 0 0 0 0 0 0 
0 0 0 0 0 0 0 0 0 
0 0 0 0 0 0 0 0 0 
0 0 0 0 0 0 0 0 0 
0 0 0 0 0 0 0 0 0 
0 0 0 0 0 0 0 0 0 
0 0 0 0 0 0 0 0 0 
0 0 0 0 0 0 0 0 0 
0 0 0 0 0 0 0 0 0 
0 0 0 0 0 0 0 0 0 
0 0 0 0 0 0 0 0 0 
0 0 0 0 0 0 0 0 0 
0 0 0 0 0 0 0 0 0 
0 0 0 0 0 0 0 0 0 
0 0 0 0 0 0 0 0 0 
0 0 0 0 0 0 0 0 0 
0 0 0 0 0 0 0 0 0 
0 0 0 0 0 0 0 0 0 
0 0 0 0 0 0 0 0 0 
0 0 0 0 0 0 0 0 0 
0 0 0 0 0 0 0 0 0 
0 0 0 0 0 0 0 0 0 
0 0 0 0 0 0 0 0 0 
0 0 0 0 0 0 0 0 0 
0 0 0 0 0 0 0 0 0 
0 0 0 0 0 0 0 0 0 
0 0 0 0 0 0 0 0 0 
0 0 0 0 0 0 0 0 0 
0 0 0 0 0 0 0 0 0 
0 0 0 0 0 0 0 0 0 
0 0 0 0 0 0 0 0 0 
0 0 0 0 0 0 0 0 0 
0 0 0 0 0 0 0 0 0 
0 0 0 0 0 0 0 0 0 
0 0 0 0 0 0 0 0 0 
0 0 0 0 0 0 0 0 0 
0 0 0 0 0 0 0 0 0 
0 0 0 0 0 0 0 0 0 
0 0 0 0 0 0 0 0 0 
0 0 0 0 0 0 0 0 0 
0 0 0 0 0 0 0 0 0 
0 0 0 0 0 0 0 0 0 
0 0 0 0 0 0 0 0 0 
0 0 0 0 0 0 0 0 0 
0 0 0 0 0 0 0 0 0 
0 0 0 0 0 0 0 0 0 
0 0 0 0 0 0 0 0 0 
0 0 0 0 0 0 0 0 0 
0 0 0 0 0 0 0 0 0 
0 0 0 0 0 0 0 0 0 
0 0 0 0 0 0 0 0 0 
0 0 0 0 0 0 0 0 0 
0 0 0 0 0 0 0 0 0 
0 0 0 0 0 0 0 0 0 
0 0 0 0 0 0 0 0 0 
0 0 0 0 0 0 0 0 0 
0 0 0 0 0 0 0 0 0 
0 0 0 0 0 0 0 0 0 
0 0 0 0 0 0 0 0 0 
0 0 0 0 0 0 0 0 0 
0 0 0 0 0 0 0 0 0 
0 0 0 0 0 0 0 0 0 
0 0 0 0 0 0 0 0 0 
0 0 0 0 0 0 0 0 0 
0 0 0 0 0 0 0 0 0 
0 0 0 0 0 0 0 0 0 
0 0 0 0 0 0 0 0 0 
0 0 0 0 0 0 0 0 0 
0 0 0 0 0 0 0 0 0 
0 0 0 0 0 0 0 0 0 
0 0 0 0 0 0 0 0 0 
0 0 0 0 0 0 0 0 0 
0 0 0 0 0 0 0 0 0 
0 0 0 0 0 0 0 0 0 
0 0 0 0 0 0 0 0 0 
0 0 0 0 0 0 0 0 0 
0 0 0 0 0 0 0 0 0 
0 0 0 0 0 0 0 0 0 
0 0 0 0 0 0 0 0 0 
0 0 0 0 0 0 0 0 0 
0 0 0 0 0 0 0 0 0 
0 0 0 0 0 0 0 0 0 
0 0 0 0 0 0 0 0 0 
0 0 0 0 0 0 0 0 0 
0 0 0 0 0 0 0 0 0 
0 0 0 0 0 0 0 0 0 
0 0 0 0 0 0 0 0 0 
0 0 0 0 0 0 0 0 0 
0 0 0 0 0 0 0 0 0 
0 0 0 0 0 0 0 0 0 
0 0 0 0 0 0 0 0 0 
0 0 0 0 0 0 0 0 0 
0 0 0 0 0 0 0 0 0 
0 0 0 0 0 0 0 0 0 
0 0 0 0 0 0 0 0 0 
0 0 0 0 0 0 0 0 0 
0 0 0 0 0 0 0 0 0 
0 0 0 0 0 0 0 0 0 
0 0 0 0 0 0 0 0 0 
0 0 0 0 0 0 0 0 0 
0 0 0 0 0 0 0 0 0 
0 0 0 0 0 0 0 0 0 
0 0 0 0 0 0 0 0 0 
0 0 0 0 0 0 0 0 0 
0 0 0 0 0 0 0 0 0 
0 0 0 0 0 0 0 0 0 
0 0 0 0 0 0 0 0 0 
0 0 0 0 0 0 0 0 0 
0 0 0 0 0 0 0 0 0 
0 0 0 0 0 0 0 0 0 
0 0 0 0 0 0 0 0 0 
0 0 0 0 0 0 0 0 0 
0 0 0 0 0 0 0 0 0 
0 0 0 0 0 0 0 0 0 
0 0 0 0 0 0 0 0 0 
0 0 0 0 0 0 0 0 0 
0 0 0 0 0 0 0 0 0 
0 0 0 0 0 0 0 0 0 
0 0 0 0 0 0 0 0 0 
0 0 0 0 0 0 0 0 0 
0 0 0 0 0 0 0 0 0 
0 0 0 0 0 0 0 0 0 
0 0 0 0 0 0 0 0 0 
0 0 0 0 0 0 0 0 0 
0 0 0 0 0 0 0 0 0 
0 0 0 0 0 0 0 0 0 
0 0 0 0 0 0 0 0 0 
0 0 0 0 0 0 0 0 0 
0 0 0 0 0 0 0 0 0 
0 0 0 0 0 0 0 0 0 
0 0 0 0 0 0 0 0 0 
0 0 0 0 0 0 0 0 0 
0 0 0 0 0 0 0 0 0 
0 0 0 0 0 0 0 0 0 
0 0 0 0 0 0 0 0 0 
0 0 0 0 0 0 0 0 0 
0 0 0 0 0 0 0 0 0 
0 0 0 0 0 0 0 0 0 
0 0 0 0 0 0 0 0 0 
0 0 0 0 0 0 0 0 0 
0 0 0 0 0 0 0 0 0 
0 0 0 0 0 0 0 0 0 
0 0 0 0 0 0 0 0 0 
0 0 0 0 0 0 0 0 0 
0 0 0 0 0 0 0 0 0 
0 0 0 0 0 0 0 0 0 
0 0 0 0 0 0 0 0 0 
0 0 0 0 0 0 0 0 0 
0 0 0 0 0 0 0 0 0 
0 0 0 0 0 0 0 0 0 
0 0 0 0 0 0 0 0 0 
0 0 0 0 0 0 0 0 0 
0 0 0 0 0 0 0 0 0 
0 0 0 0 0 0 0 0 0 
0 0 0 0 0 0 0 0 0 
0 0 0 0 0 0 0 0 0 
0 0 0 0 0 0 0 0 0 
0 0 0 0 0 0 0 0 0 
0 0 0 0 0 0 0 0 0 
0 0 0 0 0 0 0 0 0 
0 0 0 0 0 0 0 0 0 
0 0 0 0 0 0 0 0 0 
0 0 0 0 0 0 0 0 0 
0 0 0 0 0 0 0 0 0 
0 0 0 0 0 0 0 0 0 
0 0 0 0 0 0 0 0 0 
0 0 0 0 0 0 0 0 0 
0 0 0 0 0 0 0 0 0 
0 0 0 0 0 0 0 0 0 
0 0 0 0 0 0 0 0 0 
0 0 0 0 0 0 0 0 0 
0 0 0 0 0 0 0 0 0 
0 0 0 0 0 0 0 0 0 
0 0 0 0 0 0 0 0 0 
0 0 0 0 0 0 0 0 0 
0 0 0 0 0 0 0 0 0 
0 0 0 0 0 0 0 0 0 
0 0 0 0 0 0 0 0 0 
0 0 0 0 0 0 0 0 0 
0 0 0 0 0 0 0 0 0 
0 0 0 0 0 0 0 0 0 
0 0 0 0 0 0 0 0 0 
0 0 0 0 0 0 0 0 0 
0 0 0 0 0 0 0 0 0 
0 0 0 0 0 0 0 0 0 
0 0 0 0 0 0 0 0 0 
0 0 0 0 0 0 0 0 0 
0 0 0 0 0 0 0 0 0 
0 0 0 0 0 0 0 0 0 
0 0 0 0 0 0 0 0 0 
0 0 0 0 0 0 0 0 0 
0 0 0 0 0 0 0 0 0 
0 0 0 0 0 0 0 0 0 
0 0 0 0 0 0 0 0 0 
0 0 0 0 0 0 0 0 0 
0 0 0 0 0 0 0 0 0 
0 0 0 0 0 0 0 0 0 
0 0 0 0 0 0 0 0 0 
0 0 0 0 0 0 0 0 0 
0 0 0 0 0 0 0 0 0 
0 0 0 0 0 0 0 0 0 
0 0 0 0 0 0 0 0 0 
0 0 0 0 0 0 0 0 0 
0 0 0 0 0 0 0 0 0 
0 0 0 0 0 0 0 0 0 
0 0 0 0 0 0 0 0 0 
0 0 0 0 0 0 0 0 0 
0 0 0 0 0 0 0 0 0 
0 0 0 0 0 0 0 0 0 
0 0 0 0 0 0 0 0 0 
0 0 0 0 0 0 0 0 0 
0 0 0 0 0 0 0 0 0 
0 0 0 0 0 0 0 0 0 
0 0 0 0 0 0 0 0 0 
0 0 0 0 0 0 0 0 0 
0 0 0 0 0 0 0 0 0 
0 0 0 0 0 0 0 0 0 
0 0 0 0 0 0 0 0 0 
0 0 0 0 0 0 0 0 0 
0 0 0 0 0 0 0 0 0 
0 0 0 0 0 0 0 0 0 
0 0 0 0 0 0 0 0 0 
0 0 0 0 0 0 0 0 0 
0 0 0 0 0 0 0 0 0 
0 0 0 0 0 0 0 0 0 
0 0 0 0 0 0 0 0 0 
0 0 0 0 0 0 0 0 0 
0 0 0 0 0 0 0 0 0 
0 0 0 0 0 0 0 0 0 
0 0 0 0 0 0 0 0 0 
0 0 0 0 0 0 0 0 0 
0 0 0 0 0 0 0 0 0 
0 0 0 0 0 0 0 0 0 
0 0 0 0 0 0 0 0 0 
0 0 0 0 0 0 0 0 0 
0 0 0 0 0 0 0 0 0 
0 0 0 0 0 0 0 0 0 
0 0 0 0 0 0 0 0 0 
0 0 0 0 0 0 0 0 0 
0 0 0 0 0 0 0 0 0 
0 0 0 0 0 0 0 0 0 
0 0 0 0 0 0 0 0 0 
0 0 0 0 0 0 0 0 0 
0 0 0 0 0 0 0 0 0 
0 0 0 0 0 0 0 0 0 
0 0 0 0 0 0 0 0 0 
0 0 0 0 0 0 0 0 0 
0 0 0 0 0 0 0 0 0 
0 0 0 
v 3 1000 double
0.082961598639 -0.58330307265 0.048524199178 0.12284105079 -0.64257053496 0.12849982527 -0.38275604551 -0.41299085069 0.11327957948 
0.28331918179 -0.12978746071 0.037729525555 0.17884435273 0.0168524348 0.18065796911 0.46012759274 -0.60876627269 0.22059703354 
0.066851284801 0.078359480993 0.070076835632 -0.12506479986 -0.27207029645 0.11360333188 -0.077368497802 0.066072012146 0.11080837949 
0.13513924086 0.12170562443 0.24069685636 0.080730116212 -0.11334628584 -0.030848062347 -0.13201187439 -0.10927633326 0.20626990817 
-0.0025262259158 -0.034912813978 0.14614728389 -0.38293628076 0.11735021072 0.12741646193 -0.1267335732 -0.08340742641 0.019176293888 
0.2930564948 -0.043277777021 -0.3219432291 -0.19118508137 -0.032455535906 0.059758568245 -0.34957571061 0.27306225393 0.14228657854 
-0.27936544221 -0.053094840318 0.13067354054 0.20742119198 0.0031143378195 -0.094872258293 0.02964030264 -0.04878297646 -0.0013890330129 
-0.10339573022 -0.00043501239177 0.12748328367 -0.26220964661 -0.07106068529 -0.022233496779 -0.098529984173 -0.10636307668 -0.060851806127 
0.014043443056 -0.020745450027 0.059230175626 0.0097467673501 -0.033209704314 0.013545630742 -0.046777416374 0.088889415152 0.066645951161 
-0.07445495519 -0.16840215875 0.071063513923 -0.023870398989 0.075966912079 -0.15123378538 -0.0089143130356 -0.226917176 0.28334797687 
-0.17354953531 0.14896801306 -0.17387287964 0.29106263395 0.15925381327 -0.1881962063 0.031304458472 -0.15773131786 0.062903697177 
0.35697211207 -0.034388977735 0.081898391772 -0.090111584959 -0.063174373309 0.027366478392 0.15877273437 0.19337184963 0.17320712692 
0.073315357551 -0.02294000963 0.029316822871 -0.090937036834 -0.094169686049 0.038800805352 -0.056274800282 0.1039391319 0.062742625869 
0.061657009588 0.083088269697 -0.029307455483 0.3208519764 0.081869464858 -0.25268078806 0.038429876162 -0.15543342007 -0.1140019754 
0.01052092286 -0.18616326402 0.1101175598 -0.4205497746 0.0050780636182 0.19167893774 -0.20578517384 -0.39125069984 -0.28217237534 
-0.16122943537 -0.12927172342 0.084489395591 -0.18582299656 -0.048651232478 -0.0071788241565 0.0014433265763 0.067990323535 0.099778585364 
-0.008659887543 -0.10592235991 0.020989778875 -0.024508737034 -0.054437730788 0.036877788369 0.033197741843 -0.27105476598 0.038014112202 
-0.45110325361 -0.28775223375 0.31869178353 -0.031878470793 0.11144755544 0.26959183616 -0.073151796255 -0.37768564906 0.24729750488 
0.31718212069 0.29054775503 0.052520139519 -0.24312491966 -0.087699660123 0.09292460408 0.21283988478 0.16605516747 0.11651166177 
0.17857215733 0.059604645581 -0.0062924803335 -0.25895680134 0.086472438551 -0.20486622697 -0.085950638598 -0.040897084924 0.025541095157 
-0.30762627204 -0.22204188241 0.69948712677 0 0 -0.84741095 0 0 -0.84741095 
0 0 -0.84741095 0 0 -0.84741095 0 0 -0.84741095 
0 0 -0.84741095 0 0 -0.84741095 0 0 -0.84741095 
0 0 -0.84741095 0 0 -0.84741095 0 0 -0.84741095 
0 0 -0.84741095 0 0 -0.84741095 0 0 -0.84741095 
0 0 -0.84741095 0 0 -0.84741095 0 0 -0.84741095 
0 0 -0.84741095 0 0 -0.84741095 0 0 -0.84741095 
0 0 -0.84741095 0 0 -0.84741095 0 0 -0.84741095 
0 0 -0.84741095 0 0 -0.84741095 0 0 -0.84741095 
0 0 -0.84741095 0 0 -0.84741095 0 0 -0.84741095 
0 0 -0.84741095 0 0 -0.84741095 0 0 -0.84741095 
0 0 -0.84741095 0 0 -0.84741095 0 0 -0.84741095 
0 0 -0.84741095 0 0 -0.84741095 0 0 -0.84741095 
0 0 -0.84741095 0 0 -0.84741095 0 0 -0.84741095 
0 0 -0.84741095 0 0 -0.84741095 0 0 -0.84741095 
0 0 -0.84741095 0 0 -0.84741095 0 0 -0.84741095 
0 0 -0.84741095 0 0 -0.84741095 0 0 -0.84741095 
0 0 -0.84741095 0 0 -0.84741095 0 0 -0.84741095 
0 0 -0.84741095 0 0 -0.84741095 0 0 -0.84741095 
0 0 -0.84741095 0 0 -0.84741095 0 0 -0.84741095 
0 0 -0.55311095 0 0 -0.55311095 0 0 -0.55311095 
0 0 -0.55311095 0 0 -0.55311095 0 0 -0.55311095 
0 0 -0.55311095 0 0 -0.55311095 0 0 -0.55311095 
0 0 -0.55311095 0 0 -0.55311095 0 0 -0.55311095 
0 0 -0.55311095 0 0 -0.55311095 0 0 -0.55311095 
0 0 -0.55311095 0 0 -0.55311095 0 0 -0.55311095 
0 0 -0.55311095 0 0 -0.55311095 0 0 -0.55311095 
0 0 -0.55311095 0 0 -0.55311095 0 0 -0.55311095 
0 0 -0.55311095 0 0 -0.55311095 0 0 -0.55311095 
0 0 -0.55311095 0 0 -0.55311095 0 0 -0.55311095 
0 0 -0.55311095 0 0 -0.55311095 0 0 -0.55311095 
0 0 -0.55311095 0 0 -0.55311095 0 0 -0.55311095 
0 0 -0.55311095 0 0 -0.55311095 0 0 -0.55311095 
0 0 -0.55311095 0 0 -0.55311095 0 0 -0.55311095 
0 0 -0.55311095 0 0 -0.55311095 0 0 -0.55311095 
0 0 -0.55311095 0 0 -0.55311095 0 0 -0.55311095 
0 0 -0.55311095 0 0 -0.55311095 0 0 -0.55311095 
0 0 -0.55311095 0 0 -0.55311095 0 0 -0.55311095 
0 0 -0.55311095 0 0 -0.55311095 0 0 -0.55311095 
0 0 -0.55311095 0 0 -0.25881095 0 0 -0.25881095 
0 0 -0.25881095 0 0 -0.25881095 0 0 -0.25881095 
0 0 -0.25881095 0 0 -0.25881095 0 0 -0.25881095 
0 0 -0.25881095 0 0 -0.25881095 0 0 -0.25881095 
0 0 -0.25881095 0 0 -0.25881095 0 0 -0.25881095 
0 0 -0.25881095 0 0 -0.25881095 0 0 -0.25881095 
0 0 -0.25881095 0 0 -0.25881095 0 0 -0.25881095 
0 0 -0.25881095 0 0 -0.25881095 0 0 -0.25881095 
0 0 -0.25881095 0 0 -0.25881095 0 0 -0.25881095 
0 0 -0.25881095 0 0 -0.25881095 0 0 -0.25881095 
0 0 -0.25881095 0 0 -0.25881095 0 0 -0.25881095 
0 0 -0.25881095 0 0 -0.25881095 0 0 -0.25881095 
0 0 -0.25881095 0 0 -0.25881095 0 0 -0.25881095 
0 0 -0.25881095 0 0 -0.25881095 0 0 -0.25881095 
0 0 -0.25881095 0 0 -0.25881095 0 0 -0.25881095 
0 0 -0.25881095 0 0 -0.25881095 0 0 -0.25881095 
0 0 -0.25881095 0 0 -0.25881095 0 0 -0.25881095 
0 0 -0.25881095 0 0 -0.25881095 0 0 -0.25881095 
0 0 -0.25881095 0 0 -0.25881095 0 0 -0.25881095 
0 0 -0.25881095 0 0 -0.25881095 0 0 -0.25881095 
0 0 -0.25881095 -0.13259129853 -0.1064202271 -0.011310197944 -0.10544434064 -0.048587358868 0.18301179423 
-0.0019896957861 0.1699704485 0.036569921704 0.065962792521 -0.19550613245 0.41207337383 0.2365760083 -0.021355810263 0.40487443334 
-0.072292164612 0.10998293904 0.1039270924 0.10665731235 -0.069034907602 0.0099382205883 0.13606041272 -0.04803228645 0.033585375002 
0.063451226649 -0.22450554661 0.037566243177 0.0013016813812 0.012605767064 0.30513604989 -0.17986537575 0.081020263487 0.093034318784 
-0.10119169194 0.039824677372 0.18333589737 -0.12384737801 0.15069249165 0.057697002718 0.15563069221 -0.042574248534 0.12138995033 
0.16194009159 -0.18861069338 -0.030352365639 -0.053549738399 0.10770893417 0.22139925796 -0.064447179669 0.074193213261 0.12517232629 
0.117981398 0.0076240635888 0.051247150842 0.012609596428 -0.033637689427 0.23705015729 -0.12253345882 0.070268217607 0.093938752589 
-0.2361674526 0.066256346132 0.14859564036 0.15831303203 -0.030213581124 0.076181115999 0.046513011482 -0.16626586838 0.16861139274 
-0.39088682777 -0.10987750031 0.11655899075 -0.013980017451 0.049163268023 0.094868699697 -0.11865894424 0.060621633659 0.50260999877 
-0.56966174799 -0.12500456225 0.49301073016 -0.033733409137 -0.01834429275 0.24945519558 -0.070466413996 0.085481897091 0.15091294156 
0.066811697723 -0.32810928851 0.28372494394 0.083727438706 0.090102237036 -0.028406414545 -0.0028701489677 0.13366274464 0.43062493176 
0.0078788448402 -0.21669223399 0.030677903109 0.10374450553 0.043711634886 0.053484011741 0.059143899597 -0.32841718522 0.18565923193 
0.017517785858 0.086315939776 -0.0071951984152 0.060464164363 0.011243559007 -0.082305568059 0.030461572547 0.085699799404 0.15817340092 