# vtk DataFile Version 4.1
Generated by LIGGGHTS
ASCII
DATASET POLYDATA
POINTS 1000 float
0.016296 -0.0340711 0.00197708 0.0192806 -0.0117899 0.00176472 0.0149132 -0.00917238 0.00188724 
0.0180786 -0.00770765 0.00148284 -0.00495254 -0.00877136 0.00213728 -0.00378814 -0.00624187 0.00149246 
0.0155628 -0.00638517 0.00165892 0.0236269 -0.00614566 0.00170521 -0.0190129 -0.00585678 0.00356544 
0.00748241 -0.00494772 0.00194486 0.0112625 -0.00286354 0.00212758 0.0172592 -0.00407263 0.00149491 
0.0227482 -0.00343154 0.0015466 0.00409044 -0.000665418 0.00147978 0.00641173 -0.0023338 0.00154319 
0.0103748 -0.00771657 0.0482842 0.0221113 -0.00067106 0.00147932 0.00249137 -0.0300161 0.00457426 
0.00449936 -0.0307929 0.00269942 0.00404419 -0.0280265 0.00324008 0.0048834 -0.0156927 0.00203872 
0.0219125 -0.0127472 0.00226989 0.00458493 -0.0128476 0.00165734 0.0117577 -0.0106961 0.00170477 
0.0174401 -0.0100008 0.00301353 0.0230134 -0.0101835 0.00280983 -0.00287448 -0.00768261 0.00377057 
0.00506419 -0.0100342 0.00168093 0.00792689 -0.0101504 0.00156733 0.0160172 -0.0077726 0.00410651 
0.0188713 -0.00780901 0.00420736 0.0203904 -0.00920681 0.0022251 -0.00677022 -0.00665698 0.00154686 
-0.000984182 -0.00660662 0.00193055 0.0126508 -0.00538318 0.00209043 0.0210878 -0.00654499 0.002929 
0.025579 -0.00823209 0.00164229 0.0284234 -0.00808522 0.00148283 0.0312194 -0.00857288 0.00166151 
-0.0173517 -0.00417616 0.00517338 -0.0153277 -0.00341834 0.00274412 0.00864964 -0.00273358 0.00330907 
0.0131339 -0.00353055 0.00418679 0.0157831 -0.00462413 0.0038823 0.0199587 -0.00348745 0.002241 
0.0254926 -0.00267662 0.00173184 0.0268714 -0.00568896 0.00154871 0.0294807 -0.00576802 0.00276985 
0.0321863 -0.00589117 0.00184034 -0.0199276 -0.00326765 0.00434147 -0.0175878 -0.00186407 0.00351272 
-0.00752996 -0.00157074 0.00292359 -0.00374002 -0.00230846 0.00328197 -0.00146894 -0.00233821 0.00155931 
0.00400644 -0.00288371 0.00326437 0.00627459 -0.00138546 0.00422086 0.0177759 -0.00257782 0.00386324 
0.0195541 -0.000693242 0.002692 0.0306195 -0.0035002 0.00149167 0.00518864 -0.016409 0.00479925 
0.00280153 -0.0142763 0.00336925 0.00821651 -0.0135487 0.0020599 0.00181023 -0.0121754 0.00168305 
0.00603932 -0.0138478 0.00388293 0.0170448 -0.0128306 0.00317521 0.00232061 -0.00941746 0.00228664 
0.0066537 -0.0081479 0.00314943 0.0123827 -0.00813309 0.00277905 0.0139747 -0.0114497 0.00334426 
0.0215658 -0.00867067 0.00476568 0.0243982 -0.00843917 0.00457894 -0.00555594 -0.00682052 0.00411855 
-0.000463518 -0.00653114 0.00474224 0.00423139 -0.00732381 0.00185043 0.0136149 -0.00631427 0.0046018 
0.0150383 -0.00488762 0.00661634 0.0193005 -0.00499241 0.00453469 0.0271765 -0.00810816 0.004022 
-0.00244524 -0.00483494 0.00359429 0.000253359 -0.0042068 0.00286881 0.00276226 -0.00546218 0.00344855 
0.00689586 -0.00401848 0.00513931 0.0128564 -0.00306965 0.00697537 0.0211097 -0.00277432 0.00474925 
0.0315297 -0.00425639 0.00407619 -0.00110676 -0.002155 0.00438053 0.0152626 -0.00215197 0.00578893 
0.0282463 -0.00190771 0.00158884 0.00406655 -0.0140421 0.00594315 0.0108762 -0.014437 0.00256748 
-0.000541497 -0.00967095 0.00224469 0.00208905 -0.0121627 0.00511161 0.0137278 -0.0142204 0.00266855 
0.0227974 -0.0110761 0.00571844 0.000837636 -0.00964797 0.00473587 0.00409001 -0.0102521 0.00436158 
0.0171142 -0.00950035 0.00610506 0.00580834 -0.00663449 0.005428 0.023964 -0.0056435 0.00450827 
0.0267891 -0.00532208 0.00436571 -0.0076875 -0.00506141 0.00475306 -0.00145429 -0.00429223 0.00621033 
0.00409612 -0.00436245 0.00570556 0.0147718 -0.00174567 0.00859885 -0.00596818 -0.00280678 0.00498681 
-0.00339272 -0.0021993 0.00610829 0.0238857 -0.00284185 0.00410357 -0.0138115 -0.0210449 0.0136041 
0.00588483 -0.0118485 0.00591349 0.018529 -0.0118786 0.00542042 0.00292644 -0.00855354 0.0063564 
0.00953681 -0.00808991 0.00273055 0.0123548 -0.00866905 0.00557589 0.0215001 -0.00575254 0.00681437 
-0.00421609 -0.00492648 0.00579174 0.00938197 -0.00293066 0.00606101 0.0108384 -0.0043237 0.00853514 
0.0226678 -0.00315498 0.00710442 0.0289283 -0.00358652 0.0050592 0.00171441 -0.00197032 0.00470197 
0.000403863 -0.000456569 0.0026563 0.0178735 -0.00128836 0.00644983 0.0286455 -0.00086712 0.00420753 
-0.019312 -0.00994945 0.0264215 0.0023089 -0.011819 0.0222433 0.0107075 -0.0104178 0.0221289 
0.020135 -0.0106972 0.0218712 -0.00088254 -0.0083535 0.0222745 0.00450799 -0.00875778 0.0224395 
0.00695685 -0.00636324 0.022368 0.00996765 -0.00560825 0.0218586 0.000269919 -0.00253987 0.022013 
0.0139483 -0.00476567 0.0226471 0.0194432 -0.00398836 0.0221964 -0.00723867 -0.00161703 0.0220656 
0.0293025 -0.00224623 0.0221371 0.0105373 -0.013162 0.0247448 0.0150534 -0.0126471 0.0237717 
0.00171744 -0.00900392 0.0245175 0.00951497 -0.0080642 0.0237457 0.012606 -0.00794626 0.0253256 
0.0165476 -0.00889946 0.0250009 0.0216972 -0.00880215 0.0253439 -0.00515729 -0.00708521 0.0229505 
0.00252443 -0.00506457 0.0236704 0.0245803 -0.00726984 0.0242716 -0.00723029 -0.00435769 0.0239582 
-0.00459424 -0.00310115 0.0230758 0.00725789 -0.00349915 0.0236226 0.017108 -0.00300195 0.0246791 
0.0226114 -0.00453092 0.0229262 -0.0020623 -0.0018087 0.0246466 0.0137614 -0.00222457 0.0248963 
0.0226179 -0.0016597 0.0240265 0.00968051 -0.0133938 0.0277461 0.00263912 -0.0118 0.025793 
0.00620913 -0.0114518 0.0265862 0.0129948 -0.0124193 0.0266996 0.0240832 -0.00862879 0.0277959 
-0.00583245 -0.00628172 0.0258817 -0.00237281 -0.00745794 0.0268174 0.000554968 -0.0052981 0.027096 
0.00378837 -0.00716791 0.0265034 0.00668328 -0.0057114 0.0261452 -0.00811056 -0.00275725 0.0265092 
0.00976868 -0.0038265 0.0258674 0.0266755 -0.00272967 0.0255047 -0.00109251 -0.00203691 0.027627 
0.00226019 -0.00241906 0.0257962 0.0298767 -0.00217891 0.026547 -0.000353447 -0.0106154 0.0290391 
0.0175912 -0.0121567 0.0283237 0.011493 -0.00983807 0.0282385 0.0135313 -0.00754705 0.0283863 
0.0198704 -0.00990055 0.0282342 0.0201626 -0.00670628 0.0289825 -0.005487 -0.00451522 0.0290249 
0.00933726 -0.00412522 0.0289345 0.0268537 -0.00447958 0.0284029 0.00414641 -0.00186365 0.0289668 
0.0160463 -0.00162992 0.0279101 0.0206692 -0.0022492 0.0290342 -0.00154334 -0.0101732 0.0424772 
0.00349919 -0.0102358 0.0413303 0.00706869 -0.0124446 0.0418705 0.0064568 -0.00768496 0.042247 
0.011844 -0.00976446 0.042185 0.0158248 -0.00806689 0.0428675 0.0219084 -0.00938161 0.041826 
0.00349982 -0.0070736 0.0423795 0.0134513 -0.00572242 0.0417926 0.01988 -0.00658548 0.0415951 
-0.00978838 -0.002504 0.0431682 -0.0055848 -0.00262286 0.0413904 0.00446161 -0.0026273 0.0416337 
0.00839111 -0.00467737 0.0413058 0.0112205 -0.00349384 0.0423567 0.0245364 -0.00360176 0.0431845 
0.0285673 -0.0043284 0.0414153 0.019515 -0.00186515 0.0412932 0.00654792 -0.0132181 0.0456521 
0.0110937 -0.0129354 0.0432305 0.0137241 -0.0100998 0.0446928 0.016809 -0.0109745 0.0438094 
0.00600125 -0.00958303 0.0450587 0.00936901 -0.00899664 0.0453633 0.0183862 -0.00838178 0.0447034 
-0.00705797 -0.00547328 0.0434519 -0.00367241 -0.00516981 0.0436771 0.00663578 -0.00522061 0.0445634 
0.015608 -0.00627634 0.0455061 0.0200825 -0.00540089 0.0445351 0.0227121 -0.00706899 0.0441004 
0.0271361 -0.00566692 0.0437601 -0.000521577 -0.00334463 0.0442758 0.00836173 -0.00282971 0.0436967 
-0.00569476 -0.00203973 0.0453065 0.0150257 -0.00243068 0.0447279 0.0272796 -0.00218533 0.043792 
0.0041859 -0.0127503 0.0474579 0.0103648 -0.0132939 0.0466137 -0.00376229 -0.00833338 0.0470541 
0.000578021 -0.00905996 0.045896 0.0139207 -0.00880097 0.0479486 0.0216941 -0.00991844 0.0469484 
-0.000430001 -0.00660907 0.0473489 0.00287227 -0.0062379 0.0461433 0.00755183 -0.00643588 0.0479061 
-0.00661758 -0.00498749 0.0466126 -0.00229182 -0.00409767 0.046724 0.00639831 -0.00258572 0.047651 
0.0110749 -0.00257683 0.0472692 0.0161083 -0.00401193 0.047428 0.0233522 -0.00458587 0.0466817 
0.0286865 -0.00314983 0.0469855 -0.00961872 -0.00207077 0.0475423 0.00163857 -0.00168436 0.0470832 
0.0196131 -0.00227081 0.0460536 0.0250395 -0.00175307 0.0471921 0.00692926 -0.010494 0.0482851 
0.00231845 -0.00865902 0.0483616 0.00679727 -0.000238788 0.00707644 0.0169339 -0.000987802 0.00162272 
0.0165053 -4.88777e-05 0.00428147 -0.00389155 0.00222228 0.0015297 0.0157284 0.00163541 0.00160806 
0.0208822 0.00178848 0.00228148 0.0235833 0.00119638 0.00302924 0.0263715 0.001649 0.00274171 
0.0363403 0.000326649 0.00159445 -0.00597134 0.00417621 0.00152841 0.024499 0.00354097 0.00165784 
0.0369494 0.00308941 0.00195113 0.00137348 0.00874884 0.00146905 0.0208658 0.00830492 0.00373778 
-0.000898492 0.0104893 0.0014678 0.0238861 0.0115414 0.00209386 0.0263575 0.0101631 0.00167592 
0.0291773 0.0107061 0.00155978 -0.0115144 0.0141764 0.00277768 -0.00969107 0.0121728 0.00185973 
0.00240512 0.0150319 0.00148864 0.0238739 0.0143877 0.00189297 0.0263467 0.0129878 0.00191246 
0.0287259 0.0145187 0.0017359 -0.00904101 0.014948 0.00160257 0.0240114 0.0172305 0.00161186 
0.0267842 0.0166035 0.00191068 -0.00655803 0.0205986 0.00176104 0.0028492 0.0178527 0.00149245 
-0.00938124 0.0203233 0.00148564 0.00456547 0.0231798 0.0014976 0.0247834 0.0199795 0.0015801 
0.0152164 0.0219398 0.00156501 0.0179812 0.0227331 0.00155745 0.000575246 0.0260263 0.00170513 
0.00342718 0.0257385 0.00207248 0.0122066 0.0288406 0.00176253 0.0201198 0.0422388 0.00170899 
-0.00522625 9.99836e-05 0.00289052 -0.00237561 0.000115214 0.00270967 0.0156432 0.00042091 0.00696125 
0.00665424 0.000455699 0.00204263 0.0342379 0.00216796 0.00212963 0.0233329 0.00378592 0.00427468 
0.0270385 0.00441762 0.00263538 0.0315718 0.00137932 0.00276186 0.0390935 0.00122787 0.00180429 
-0.0066394 0.00693017 0.00196808 -0.0049512 0.00556575 0.00380412 0.00910241 0.00622867 0.00304115 
0.0113404 0.00706971 0.00150052 0.0185776 0.00526823 0.00149951 0.0247153 0.00599765 0.00311472 
0.0323697 0.00740081 0.00151762 0.0338354 0.00499393 0.00199364 -0.00607395 0.00902033 0.00383333 
-0.00345955 0.007995 0.00418026 -0.00106796 0.00791031 0.00264132 0.000525101 0.00996776 0.00388119 
[...]
POINT_DATA 1000
FIELD FieldData 7
id 1 1000 int
18 53 37 46 36 17 30 15 83 
16 38 33 19 235 104 777 164 24 
10 41 49 3 25 290 56 27 58 
22 12 13 45 48 302 2 50 4 
21 9 32 23 29 44 8 5 7 
274 39 34 141 40 51 291 205 43 
308 35 42 14 247 1 254 280 266 
52 297 263 251 295 285 294 264 270 
253 268 31 269 273 260 28 47 287 
265 300 289 65 54 299 309 26 262 
282 252 301 272 298 256 257 278 281 
305 259 255 283 271 304 276 261 20 
267 296 306 277 258 284 293 275 286 
307 292 303 11 288 279 57 531 520 
501 524 548 528 532 536 517 556 529 
554 558 504 508 552 526 518 521 549 
534 503 507 506 545 513 512 541 557 
547 551 515 535 544 533 502 525 522 
540 542 519 539 527 505 510 511 509 
543 555 516 546 538 523 553 530 537 
550 514 761 769 789 776 774 797 803 
796 758 800 804 806 764 783 793 752 
788 790 810 766 802 782 787 755 786 
784 757 762 791 772 763 767 753 799 
771 754 807 775 773 768 765 795 751 
778 798 808 794 759 756 760 780 785 
801 792 779 770 809 805 781 158 138 
67 102 55 186 72 66 136 199 131 
160 69 147 118 157 130 149 223 227 
183 203 165 80 175 222 90 127 120 
86 231 208 105 159 184 77 151 91 
191 107 132 6 218 202 242 380 248 
89 232 212 112 331 119 433 234 85 
122 73 246 63 189 99 455 229 237 
61 145 243 123 116 206 211 238 142 
185 92 88 100 204 62 155 78 169 
178 163 154 249 179 471 146 226 194 
221 87 82 126 245 196 106 182 110 
64 140 97 117 79 366 75 174 124 
162 225 418 103 195 484 219 177 98 
236 224 153 148 139 239 95 200 111 
233 416 113 378 832 383 214 449 397 
209 96 359 423 429 94 398 384 101 
313 173 172 213 250 317 128 210 152 
220 241 166 180 352 448 343 476 350 
473 215 198 150 342 84 428 415 490 
93 137 244 462 472 427 467 59 386 
240 115 201 385 332 394 444 109 412 
310 379 436 364 376 197 399 430 188 
451 167 367 228 447 349 437 121 81 
176 360 76 114 168 190 143 370 459 
156 392 192 207 323 962 434 357 499 
486 129 68 482 344 365 328 363 452 
450 338 314 161 413 460 425 354 454 
453 135 362 333 475 498 217 108 70 
466 396 456 340 311 361 405 497 181 
408 337 494 230 74 409 368 492 346 
411 387 348 371 406 481 465 391 377 
395 336 319 318 400 347 435 322 407 
404 495 315 485 341 388 463 381 402 
60 71 432 170 500 326 353 439 334 
125 487 401 339 369 469 477 193 393 
457 468 389 330 382 335 316 419 438 
493 355 489 445 410 216 421 374 403 
470 358 446 488 424 321 480 375 327 
312 461 373 483 420 414 474 479 464 
390 491 356 442 422 458 426 372 496 
441 320 329 431 133 417 440 144 324 
345 478 325 134 171 443 187 351 698 
703 695 747 678 670 656 727 593 619 
625 707 606 682 654 650 599 624 700 
713 742 585 598 743 672 586 590 674 
576 702 618 734 616 638 696 735 571 
640 749 649 642 685 679 647 711 645 
655 566 724 579 563 607 718 584 736 
561 562 610 721 710 723 622 634 748 
715 578 570 714 691 697 722 595 662 
644 559 728 628 750 604 740 560 592 
631 564 690 652 574 573 603 613 709 
648 632 701 596 673 629 659 738 730 
680 611 664 669 582 653 658 609 626 
591 637 692 719 683 605 745 636 614 
660 739 588 594 725 600 587 741 581 
575 597 643 620 651 608 708 615 746 
639 686 681 693 565 577 601 675 732 
689 688 633 717 731 744 627 684 705 
589 666 569 657 726 677 671 630 580 
617 568 583 706 737 646 733 694 676 
667 665 621 712 687 716 602 661 720 
623 635 668 641 729 699 612 704 567 
663 572 876 959 927 981 992 862 961 
915 890 835 855 843 901 979 871 856 
910 924 917 912 859 883 866 951 914 
867 897 976 982 828 948 968 902 973 
834 970 857 905 993 852 893 987 988 
875 885 818 925 952 811 989 906 821 
860 922 945 929 921 967 916 833 841 
837 847 930 935 936 814 813 863 812 
953 990 943 870 873 954 950 934 824 
966 957 977 949 881 963 933 836 816 
845 889 868 944 822 965 819 947 940 
986 827 858 978 874 848 898 839 878 
939 919 932 877 974 825 896 886 997 
984 971 907 840 942 900 891 931 911 
937 864 817 985 964 926 903 895 975 
849 872 842 851 969 983 823 955 920 
908 846 815 894 1000 960 884 956 826 
844 904 996 923 838 994 829 880 831 
865 918 899 854 820 980 830 972 887 
892 879 913 991 850 853 861 946 928 
958 909 941 869 882 998 888 938 995 
999 
type 1 1000 int
1 1 1 1 1 1 1 1 1 
1 1 1 1 1 1 1 1 1 
1 1 1 1 1 1 1 1 1 
1 1 1 1 1 1 1 1 1 
1 1 1 1 1 1 1 1 1 
1 1 1 1 1 1 1 1 1 
1 1 1 1 1 1 1 1 1 
1 1 1 1 1 1 1 1 1 
1 1 1 1 1 1 1 1 1 
1 1 1 1 1 1 1 1 1 
1 1 1 1 1 1 1 1 1 
1 1 1 1 1 1 1 1 1 
1 1 1 1 1 1 1 1 1 
1 1 1 1 1 1 1 1 1 
1 1 1 1 1 1 1 1 1 
1 1 1 1 1 1 1 1 1 
1 1 1 1 1 1 1 1 1 
1 1 1 1 1 1 1 1 1 
1 1 1 1 1 1 1 1 1 
1 1 1 1 1 1 1 1 1 
1 1 1 1 1 1 1 1 1 
1 1 1 1 1 1 1 1 1 
1 1 1 1 1 1 1 1 1 
1 1 1 1 1 1 1 1 1 
1 1 1 1 1 1 1 1 1 
1 1 1 1 1 1 1 1 1 
1 1 1 1 1 1 1 1 1 
1 1 1 1 1 1 1 1 1 
1 1 1 1 1 1 1 1 1 
1 1 1 1 1 1 1 1 1 
1 1 1 1 1 1 1 1 1 
1 1 1 1 1 1 1 1 1 
1 1 1 1 1 1 1 1 1 
1 1 1 1 1 1 1 1 1 
1 1 1 1 1 1 1 1 1 
1 1 1 1 1 1 1 1 1 
1 1 1 1 1 1 1 1 1 
1 1 1 1 1 1 1 1 1 
1 1 1 1 1 1 1 1 1 
1 1 1 1 1 1 1 1 1 
1 1 1 1 1 1 1 1 1 
1 1 1 1 1 1 1 1 1 
1 1 1 1 1 1 1 1 1 
1 1 1 1 1 1 1 1 1 
1 1 1 1 1 1 1 1 1 
1 1 1 1 1 1 1 1 1 
1 1 1 1 1 1 1 1 1 
1 1 1 1 1 1 1 1 1 
1 1 1 1 1 1 1 1 1 
1 1 1 1 1 1 1 1 1 
1 1 1 1 1 1 1 1 1 
1 1 1 1 1 1 1 1 1 
1 1 1 1 1 1 1 1 1 
1 1 1 1 1 1 1 1 1 
1 1 1 1 1 1 1 1 1 
1 1 1 1 1 1 1 1 1 
1 1 1 1 1 1 1 1 1 
1 1 1 1 1 1 1 1 1 
1 1 1 1 1 1 1 1 1 
1 1 1 1 1 1 1 1 1 
1 1 1 1 1 1 1 1 1 
1 1 1 1 1 1 1 1 1 
1 1 1 1 1 1 1 1 1 
1 1 1 1 1 1 1 1 1 
1 1 1 1 1 1 1 1 1 
1 1 1 1 1 1 1 1 1 
1 1 1 1 1 1 1 1 1 
1 1 1 1 1 1 1 1 1 
1 1 1 1 1 1 1 1 1 
1 1 1 1 1 1 1 1 1 
1 1 1 1 1 1 1 1 1 
1 1 1 1 1 1 1 1 1 
1 1 1 1 1 1 1 1 1 
1 1 1 1 1 1 1 1 1 
1 1 1 1 1 1 1 1 1 
1 1 1 1 1 1 1 1 1 
1 1 1 1 1 1 1 1 1 
1 1 1 1 1 1 1 1 1 
1 1 1 1 1 1 1 1 1 
1 1 1 1 1 1 1 1 1 
1 1 1 1 1 1 1 1 1 
1 1 1 1 1 1 1 1 1 
1 1 1 1 1 1 1 1 1 
1 1 1 1 1 1 1 1 1 
1 1 1 1 1 1 1 1 1 
1 1 1 1 1 1 1 1 1 
1 1 1 1 1 1 1 1 1 
1 1 1 1 1 1 1 1 1 
1 1 1 1 1 1 1 1 1 
1 1 1 1 1 1 1 1 1 
1 1 1 1 1 1 1 1 1 
1 1 1 1 1 1 1 1 1 
1 1 1 1 1 1 1 1 1 
1 1 1 1 1 1 1 1 1 
1 1 1 1 1 1 1 1 1 
1 1 1 1 1 1 1 1 1 
1 1 1 1 1 1 1 1 1 
1 1 1 1 1 1 1 1 1 
1 1 1 1 1 1 1 1 1 
1 1 1 1 1 1 1 1 1 
1 1 1 1 1 1 1 1 1 
1 1 1 1 1 1 1 1 1 
1 1 1 1 1 1 1 1 1 
1 1 1 1 1 1 1 1 1 
1 1 1 1 1 1 1 1 1 
1 1 1 1 1 1 1 1 1 
1 1 1 1 1 1 1 1 1 
1 1 1 1 1 1 1 1 1 
1 1 1 1 1 1 1 1 1 
1 1 1 1 1 1 1 1 1 
1 1 1 1 1 1 1 1 1 
1 
i 3 1000 int
0 0 0 0 0 0 0 0 0 
0 0 0 0 0 0 0 0 0 
0 0 0 0 0 0 0 0 0 
0 0 0 0 0 0 0 0 0 
0 0 0 0 0 0 0 0 0 
0 0 0 0 0 0 0 0 0 
0 0 0 0 0 0 0 0 0 
0 0 0 0 0 0 0 0 0 
0 0 0 0 0 0 0 0 0 
0 0 0 0 0 0 0 0 0 
0 0 0 0 0 0 0 0 0 
0 0 0 0 0 0 0 0 0 
0 0 0 0 0 0 0 0 0 
0 0 0 0 0 0 0 0 0 
0 0 0 0 0 0 0 0 0 
0 0 0 0 0 0 0 0 0 
0 0 0 0 0 0 0 0 0 
0 0 0 0 0 0 0 0 0 
0 0 0 0 0 0 0 0 0 
0 0 0 0 0 0 0 0 0 
0 0 0 0 0 0 0 0 0 
0 0 0 0 0 0 0 0 0 
0 0 0 0 0 0 0 0 0 
0 0 0 0 0 0 0 0 0 
0 0 0 0 0 0 0 0 0 
0 0 0 0 0 0 0 0 0 
0 0 0 0 0 0 0 0 0 
0 0 0 0 0 0 0 0 0 
0 0 0 0 0 0 0 0 0 
0 0 0 0 0 0 0 0 0 
0 0 0 0 0 0 0 0 0 
0 0 0 0 0 0 0 0 0 
0 0 0 0 0 0 0 0 0 
0 0 0 0 0 0 0 0 0 
0 0 0 0 0 0 0 0 0 
0 0 0 0 0 0 0 0 0 
0 0 0 0 0 0 0 0 0 
0 0 0 0 0 0 0 0 0 
0 0 0 0 0 0 0 0 0 
0 0 0 0 0 0 0 0 0 
0 0 0 0 0 0 0 0 0 
0 0 0 0 0 0 0 0 0 
0 0 0 0 0 0 0 0 0 
0 0 0 0 0 0 0 0 0 
0 0 0 0 0 0 0 0 0 
0 0 0 0 0 0 0 0 0 
0 0 0 0 0 0 0 0 0 
0 0 0 0 0 0 0 0 0 
0 0 0 0 0 0 0 0 0 
0 0 0 0 0 0 0 0 0 
0 0 0 0 0 0 0 0 0 
0 0 0 0 0 0 0 0 0 
0 0 0 0 0 0 0 0 0 
0 0 0 0 0 0 0 0 0 
0 0 0 0 0 0 0 0 0 
0 0 0 0 0 0 0 0 0 
0 0 0 0 0 0 0 0 0 
0 0 0 0 0 0 0 0 0 
0 0 0 0 0 0 0 0 0 
0 0 0 0 0 0 0 0 0 
0 0 0 0 0 0 0 0 0 
0 0 0 0 0 0 0 0 0 
0 0 0 0 0 0 0 0 0 
0 0 0 0 0 0 0 0 0 
0 0 0 0 0 0 0 0 0 
0 0 0 0 0 0 0 0 0 
0 0 0 0 0 0 0 0 0 
0 0 0 0 0 0 0 0 0 
0 0 0 0 0 0 0 0 0 
0 0 0 0 0 0 0 0 0 
0 0 0 0 0 0 0 0 0 
0 0 0 0 0 0 0 0 0 
0 0 0 0 0 0 0 0 0 
0 0 0 0 0 0 0 0 0 
0 0 0 0 0 0 0 0 0 
0 0 0 0 0 0 0 0 0 
0 0 0 0 0 0 0 0 0 
0 0 0 0 0 0 0 0 0 
0 0 0 0 0 0 0 0 0 
0 0 0 0 0 0 0 0 0 
0 0 0 0 0 0 0 0 0 
0 0 0 0 0 0 0 0 0 
0 0 0 0 0 0 0 0 0 
0 0 0 0 0 0 0 0 0 
0 0 0 0 0 0 0 0 0 
0 0 0 0 0 0 0 0 0 
0 0 0 0 0 0 0 0 0 
0 0 0 0 0 0 0 0 0 
0 0 0 0 0 0 0 0 0 
0 0 0 0 0 0 0 0 0 
0 0 0 0 0 0 0 0 0 
0 0 0 0 0 0 0 0 0 
0 0 0 0 0 0 0 0 0 
0 0 0 0 0 0 0 0 0 
0 0 0 0 0 0 0 0 0 
0 0 0 0 0 0 0 0 0 
0 0 0 0 0 0 0 0 0 
0 0 0 0 0 0 0 0 0 
0 0 0 0 0 0 0 0 0 
0 0 0 0 0 0 0 0 0 
0 0 0 0 0 0 0 0 0 
0 0 0 0 0 0 0 0 0 
0 0 0 0 0 0 0 0 0 
0 0 0 0 0 0 0 0 0 
0 0 0 0 0 0 0 0 0 
0 0 0 0 0 0 0 0 0 
0 0 0 0 0 0 0 0 0 
0 0 0 0 0 0 0 0 0 
0 0 0 0 0 0 0 0 0 
0 0 0 0 0 0 0 0 0 
0 0 0 0 0 0 0 0 0 
0 0 0 0 0 0 0 0 0 
0 0 0 0 0 0 0 0 0 
0 0 0 0 0 0 0 0 0 
0 0 0 0 0 0 0 0 0 
0 0 0 0 0 0 0 0 0 
0 0 0 0 0 0 0 0 0 
0 0 0 0 0 0 0 0 0 
0 0 0 0 0 0 0 0 0 
0 0 0 0 0 0 0 0 0 
0 0 0 0 0 0 0 0 0 
0 0 0 0 0 0 0 0 0 
0 0 0 0 0 0 0 0 0 
0 0 0 0 0 0 0 0 0 
0 0 0 0 0 0 0 0 0 
0 0 0 0 0 0 0 0 0 
0 0 0 0 0 0 0 0 0 
0 0 0 0 0 0 0 0 0 
0 0 0 0 0 0 0 0 0 
0 0 0 0 0 0 0 0 0 
0 0 0 0 0 0 0 0 0 
0 0 0 0 0 0 0 0 0 
0 0 0 0 0 0 0 0 0 
0 0 0 0 0 0 0 0 0 
0 0 0 0 0 0 0 0 0 
0 0 0 0 0 0 0 0 0 
0 0 0 0 0 0 0 0 0 
0 0 0 0 0 0 0 0 0 
0 0 0 0 0 0 0 0 0 
0 0 0 0 0 0 0 0 0 
0 0 0 0 0 0 0 0 0 
0 0 0 0 0 0 0 0 0 
0 0 0 0 0 0 0 0 0 
0 0 0 0 0 0 0 0 0 
0 0 0 0 0 0 0 0 0 
0 0 0 0 0 0 0 0 0 
0 0 0 0 0 0 0 0 0 
0 0 0 0 0 0 0 0 0 
0 0 0 0 0 0 0 0 0 
0 0 0 0 0 0 0 0 0 
0 0 0 0 0 0 0 0 0 
0 0 0 0 0 0 0 0 0 
0 0 0 0 0 0 0 0 0 
0 0 0 0 0 0 0 0 0 
0 0 0 0 0 0 0 0 0 
0 0 0 0 0 0 0 0 0 
0 0 0 0 0 0 0 0 0 
0 0 0 0 0 0 0 0 0 
0 0 0 0 0 0 0 0 0 
0 0 0 0 0 0 0 0 0 
0 0 0 0 0 0 0 0 0 
0 0 0 0 0 0 0 0 0 
0 0 0 0 0 0 0 0 0 
0 0 0 0 0 0 0 0 0 
0 0 0 0 0 0 0 0 0 
0 0 0 0 0 0 0 0 0 
0 0 0 0 0 0 0 0 0 
0 0 0 0 0 0 0 0 0 
0 0 0 0 0 0 0 0 0 
0 0 0 0 0 0 0 0 0 
0 0 0 0 0 0 0 0 0 
0 0 0 0 0 0 0 0 0 
0 0 0 0 0 0 0 0 0 
0 0 0 0 0 0 0 0 0 
0 0 0 0 0 0 0 0 0 
0 0 0 0 0 0 0 0 0 
0 0 0 0 0 0 0 0 0 
0 0 0 0 0 0 0 0 0 
0 0 0 0 0 0 0 0 0 
0 0 0 0 0 0 0 0 0 
0 0 0 0 0 0 0 0 0 
0 0 0 0 0 0 0 0 0 
0 0 0 0 0 0 0 0 0 
0 0 0 0 0 0 0 0 0 
0 0 0 0 0 0 0 0 0 
0 0 0 0 0 0 0 0 0 
0 0 0 0 0 0 0 0 0 
0 0 0 0 0 0 0 0 0 
0 0 0 0 0 0 0 0 0 
0 0 0 0 0 0 0 0 0 
0 0 0 0 0 0 0 0 0 
0 0 0 0 0 0 0 0 0 
0 0 0 0 0 0 0 0 0 
0 0 0 0 0 0 0 0 0 
0 0 0 0 0 0 0 0 0 
0 0 0 0 0 0 0 0 0 
0 0 0 0 0 0 0 0 0 
0 0 0 0 0 0 0 0 0 
0 0 0 0 0 0 0 0 0 
0 0 0 0 0 0 0 0 0 
0 0 0 0 0 0 0 0 0 
0 0 0 0 0 0 0 0 0 
0 0 0 0 0 0 0 0 0 
0 0 0 0 0 0 0 0 0 
0 0 0 0 0 0 0 0 0 
0 0 0 0 0 0 0 0 0 
0 0 0 0 0 0 0 0 0 
0 0 0 0 0 0 0 0 0 
0 0 0 0 0 0 0 0 0 
0 0 0 0 0 0 0 0 0 
0 0 0 0 0 0 0 0 0 
0 0 0 0 0 0 0 0 0 
0 0 0 0 0 0 0 0 0 
0 0 0 0 0 0 0 0 0 
0 0 0 0 0 0 0 0 0 
0 0 0 0 0 0 0 0 0 
0 0 0 0 0 0 0 0 0 
0 0 0 0 0 0 0 0 0 
0 0 0 0 0 0 0 0 0 
0 0 0 0 0 0 0 0 0 
0 0 0 0 0 0 0 0 0 
0 0 0 0 0 0 0 0 0 
0 0 0 0 0 0 0 0 0 
0 0 0 0 0 0 0 0 0 
0 0 0 0 0 0 0 0 0 
0 0 0 0 0 0 0 0 0 
0 0 0 0 0 0 0 0 0 
0 0 0 0 0 0 0 0 0 
0 0 0 0 0 0 0 0 0 
0 0 0 0 0 0 0 0 0 
0 0 0 0 0 0 0 0 0 
0 0 0 0 0 0 0 0 0 
0 0 0 0 0 0 0 0 0 
0 0 0 0 0 0 0 0 0 
0 0 0 0 0 0 0 0 0 
0 0 0 0 0 0 0 0 0 
0 0 0 0 0 0 0 0 0 
0 0 0 0 0 0 0 0 0 
0 0 0 0 0 0 0 0 0 
0 0 0 0 0 0 0 0 0 
0 0 0 0 0 0 0 0 0 
0 0 0 0 0 0 0 0 0 
0 0 0 0 0 0 0 0 0 
0 0 0 0 0 0 0 0 0 
0 0 0 0 0 0 0 0 0 
0 0 0 0 0 0 0 0 0 
0 0 0 0 0 0 0 0 0 
0 0 0 0 0 0 0 0 0 
0 0 0 0 0 0 0 0 0 
0 0 0 0 0 0 0 0 0 
0 0 0 0 0 0 0 0 0 
0 0 0 0 0 0 0 0 0 
0 0 0 0 0 0 0 0 0 
0 0 0 0 0 0 0 0 0 
0 0 0 0 0 0 0 0 0 
0 0 0 0 0 0 0 0 0 
0 0 0 0 0 0 0 0 0 
0 0 0 0 0 0 0 0 0 
0 0 0 0 0 0 0 0 0 
0 0 0 0 0 0 0 0 0 
0 0 0 0 0 0 0 0 0 
0 0 0 0 0 0 0 0 0 
0 0 0 0 0 0 0 0 0 
0 0 0 0 0 0 0 0 0 
0 0 0 0 0 0 0 0 0 
0 0 0 0 0 0 0 0 0 
0 0 0 0 0 0 0 0 0 
0 0 0 0 0 0 0 0 0 
0 0 0 0 0 0 0 0 0 
0 0 0 0 0 0 0 0 0 
0 0 0 0 0 0 0 0 0 
0 0 0 0 0 0 0 0 0 
0 0 0 0 0 0 0 0 0 
0 0 0 0 0 0 0 0 0 
0 0 0 0 0 0 0 0 0 
0 0 0 0 0 0 0 0 0 
0 0 0 0 0 0 0 0 0 
0 0 0 0 0 0 0 0 0 
0 0 0 0 0 0 0 0 0 
0 0 0 0 0 0 0 0 0 
0 0 0 0 0 0 0 0 0 
0 0 0 0 0 0 0 0 0 
0 0 0 0 0 0 0 0 0 
0 0 0 0 0 0 0 0 0 
0 0 0 0 0 0 0 0 0 
0 0 0 0 0 0 0 0 0 
0 0 0 0 0 0 0 0 0 
0 0 0 0 0 0 0 0 0 
0 0 0 0 0 0 0 0 0 
0 0 0 0 0 0 0 0 0 
0 0 0 0 0 0 0 0 0 
0 0 0 0 0 0 0 0 0 
0 0 0 0 0 0 0 0 0 
0 0 0 0 0 0 0 0 0 
0 0 0 0 0 0 0 0 0 
0 0 0 0 0 0 0 0 0 
0 0 0 0 0 0 0 0 0 
0 0 0 0 0 0 0 0 0 
0 0 0 0 0 0 0 0 0 
0 0 0 0 0 0 0 0 0 
0 0 0 0 0 0 0 0 0 
0 0 0 0 0 0 0 0 0 
0 0 0 0 0 0 0 0 0 
0 0 0 0 0 0 0 0 0 
0 0 0 0 0 0 0 0 0 
0 0 0 0 0 0 0 0 0 
0 0 0 0 0 0 0 0 0 
0 0 0 0 0 0 0 0 0 
0 0 0 0 0 0 0 0 0 
0 0 0 0 0 0 0 0 0 
0 0 0 0 0 0 0 0 0 
0 0 0 0 0 0 0 0 0 
0 0 0 0 0 0 0 0 0 
0 0 0 0 0 0 0 0 0 
0 0 0 0 0 0 0 0 0 
0 0 0 0 0 0 0 0 0 
0 0 0 0 0 0 0 0 0 
0 0 0 0 0 0 0 0 0 
0 0 0 0 0 0 0 0 0 
0 0 0 0 0 0 0 0 0 
0 0 0 0 0 0 0 0 0 
0 0 0 0 0 0 0 0 0 
0 0 0 0 0 0 0 0 0 
0 0 0 0 0 0 0 0 0 
0 0 0 0 0 0 0 0 0 
0 0 0 0 0 0 0 0 0 
0 0 0 0 0 0 0 0 0 
0 0 0 0 0 0 0 0 0 
0 0 0 0 0 0 0 0 0 
0 0 0 0 0 0 0 0 0 
0 0 0 0 0 0 0 0 0 
0 0 0 0 0 0 0 0 0 
0 0 0 0 0 0 0 0 0 
0 0 0 
v 3 1000 double
0.082251576895 -0.57142760234 0.050622569679 0.0160776655 -0.017365995883 0.12954645061 -0.023891773554 -0.044317828951 0.034256177471 
-0.033180658233 -0.055883737258 0.014546554776 0.10448915981 -0.15554000227 0.028988478116 0.045293507938 -0.14199363486 0.0065994862137 
-0.011623169528 -0.026371478568 -0.021756706905 0.0026373211828 -0.064346730765 0.11144984373 -0.18442650691 -0.1486886688 0.13558927117 
-0.048791081931 -0.11284029363 -0.049264191561 -0.058384410731 -0.12645482007 0.0084915868932 0.10252107193 -0.11109437609 0.038661338099 
0.065998960161 -0.021597074181 0.037315866523 0.0017947515972 -0.086784667277 -0.016228250962 -0.033902012904 -0.093374292424 -0.0045015904174 
0 0 -0.49425095 0.086636233754 -0.0055083425669 0.014842731027 0.13256829378 -0.49791714217 0.020676483588 
-0.0024684456717 -0.592032538 -0.095210980022 0.070112749913 -0.57437797816 -0.16940906528 0.2007972119 -0.14457241478 0.012746476658 
0.14590920935 0.094009550919 -0.04103908058 0.068575241457 -0.1198558981 0.011957357841 -0.099574032051 0.11250888817 -0.092988816167 
0.0035239148802 0.017972681533 0.071374011051 0.0030919830071 0.15476988554 0.048014403311 0.098346628752 -0.074478110712 0.047378805131 
0.034637184064 -0.067047224446 0.078474160662 0.089959400399 -0.044119907872 0.012701521808 -0.062789394565 -0.025002028098 0.0031553650419 
-0.055483472687 0.067639136329 0.045766531117 -0.0072408520984 0.014490520553 0.095070252921 0.1371000206 -0.085298576225 -0.012567879545 
0.029770519671 -0.068822658936 -0.0034143474139 0.076115716795 -0.013545595049 -0.051843926834 -0.051459403886 0.006071722998 0.059594655922 
-0.021341282848 -0.10366154792 0.13183843629 -0.047164243392 -0.089991447677 0.073171329108 -0.029918499375 -0.097305157914 -0.15396747641 
-0.17082092098 0.0012418640994 -0.032880225838 -0.43910549939 0.042600569906 -0.1528557242 -0.01538355168 -0.1596564753 -0.029939129085 
0.0032569168073 -0.034246418788 -0.02987500167 0.022686798488 -0.083110222084 0.0083520702433 0.063014850715 -0.0091503433538 0.02753357782 
0.041790519513 -0.11483582484 -0.020415938641 -0.053414458687 -0.071342487212 0.059472987308 -0.018973410768 -0.099143146033 0.064890732118 
-0.026523005599 -0.010502519835 0.04290002671 -0.2698887982 -0.17421179354 0.076072596676 -0.40239261038 0.033285690706 0.025220574448 
-0.085904931149 0.040507377509 0.0075146556456 0.020852275511 -0.081572554072 -0.016117015843 -0.014261884898 -0.007375221442 0.0024351479795 
-0.0013449491655 -0.066638628495 -0.02248176146 0.01789694605 -0.052020932358 -0.024276908413 0.082557169879 -0.04394718269 0.019744122351 
0.016961431775 -0.043585240895 -0.0860305972 0.088006472244 -0.17031017085 0.046893202256 0.0098370510168 -0.14210708995 0.0090881511413 
0.053264769681 -0.20558997111 -0.052160276886 -0.23161783904 -0.078076979115 -0.36687923029 0.072619261528 -0.22720899406 -0.097447657118 
0.040609177312 -0.12207408584 0.050176240173 -0.19336339958 0.040605640351 -0.15906430139 0.010607937234 -0.11109060612 -0.10106125838 
0.14859297292 0.0064096522049 -0.061427498158 -0.032767623018 0.019111296982 -0.034456998462 -0.085389540014 -0.16704238572 -0.21252007411 
-0.027254679609 0.099928067325 0.11340704479 0.0063016592131 0.033592072104 0.14873388865 0.072520157765 -0.032930732556 0.010855331561 
0.0750239968 -0.027018758379 -0.011251817345 0.10979240023 -0.071318375637 0.017886823111 -0.059202448505 -0.041184067799 -0.018011067689 
-0.059073105504 -0.039093828391 0.0016720061696 -0.049027063228 0.09509149651 0.0034782223798 0.0076444144216 0.022420514755 0.11141399906 
0.040728349165 -0.051579911951 -0.021562060462 0.032998431323 -0.066375382488 -0.056328210927 0.043871768921 -0.090947818252 -0.09386155174 
-0.038128998107 -0.029356040056 0.086692256157 -0.040429166055 -0.14279408129 -0.061542895149 0.071229444516 0.064419680509 0.050457682045 
-0.027967709997 -0.1302636219 0.10531627485 0.016662007525 -0.022219991529 -0.012594551866 -0.0088559841688 -0.037367660153 -0.048082530669 
0.049409815679 -0.20387579915 -0.28272207371 -0.060453492395 -0.18722440859 -0.024041976551 -0.11713348224 -0.069736860863 -0.66611160818 
-0.068824554658 0.10855278128 -0.23648052258 -0.045889994669 -0.1641861296 -0.1130387835 -0.18183265958 -0.11004201713 -0.37675087116 
0.055815880546 -0.037646037164 -0.30376073576 -0.071370445098 -0.12755571277 -0.16945710404 -0.062877186965 -0.11093955171 0.020826476315 
0.076361497794 -0.088281083305 -0.11045888626 0.033544237783 -0.096704791054 0.046847848309 -0.033269799088 0.017507235696 0.11506362662 
0.055484043808 0.007558793848 0.0052034650372 -0.0073596444718 -0.02747088734 0.032274200423 0.05875025126 0.0044975563753 -0.013911257277 
-0.083871039333 -0.10742635843 -0.030903558084 0.01197015521 -0.06409595561 -0.065484318157 -0.02244789535 0.0034718472451 -0.016819003403 
-0.022467834519 -0.020907063091 -0.02597492723 0.052924074038 -0.039977180093 0.019416332959 -0.45110325361 -0.28775223375 0.08325178353 
-0.056464027005 -0.18291703525 0.092592226713 0.03886905439 -0.11427642972 -0.25272880371 -0.057157292943 0.018028507645 -0.23716947179 
0.058731978844 0.13677436747 -0.37253946828 -0.014712080791 -0.063952718401 -0.065314941081 0.16821669516 0.020281157608 -0.34221788461 
0.050769974617 -0.063824795236 0.074981251931 0.053628419305 -0.08223764913 0.031600636878 -0.20073874028 -0.19014395135 -0.13674905513 
0.29012339601 -0.005906484267 -0.048836619982 0.11354314968 0.067264981188 -0.14539098326 -0.01472482492 -0.091390434744 -0.026796963525 
0.0034726583512 -0.0087044723705 -0.0095643073253 -0.014949626147 0.081900891736 0.004660829776 0.116253497 0.096702406285 -0.39163985206 
-0.30762627204 -0.22204188241 0.46404712677 0 0 -0.78855095 0 0 -0.78855095 
0 0 -0.78855095 0 0 -0.78855095 0 0 -0.78855095 
0 0 -0.78855095 0 0 -0.78855095 0 0 -0.78855095 
0 0 -0.78855095 0 0 -0.78855095 0 0 -0.78855095 
0 0 -0.78855095 0 0 -0.78855095 0 0 -0.78855095 
0 0 -0.78855095 0 0 -0.78855095 0 0 -0.78855095 
0 0 -0.78855095 0 0 -0.78855095 0 0 -0.78855095 
0 0 -0.78855095 0 0 -0.78855095 0 0 -0.78855095 
0 0 -0.78855095 0 0 -0.78855095 0 0 -0.78855095 
0 0 -0.78855095 0 0 -0.78855095 0 0 -0.78855095 
0 0 -0.78855095 0 0 -0.78855095 0 0 -0.78855095 
0 0 -0.78855095 0 0 -0.78855095 0 0 -0.78855095 
0 0 -0.78855095 0 0 -0.78855095 0 0 -0.78855095 
0 0 -0.78855095 0 0 -0.78855095 0 0 -0.78855095 
0 0 -0.78855095 0 0 -0.78855095 0 0 -0.78855095 
0 0 -0.78855095 0 0 -0.78855095 0 0 -0.78855095 
0 0 -0.78855095 0 0 -0.78855095 0 0 -0.78855095 
0 0 -0.78855095 0 0 -0.78855095 0 0 -0.78855095 
0 0 -0.78855095 0 0 -0.78855095 0 0 -0.78855095 
0 0 -0.78855095 0 0 -0.78855095 0 0 -0.49425095 
0 0 -0.49425095 0 0 -0.49425095 0 0 -0.49425095 
0 0 -0.49425095 0 0 -0.49425095 0 0 -0.49425095 
0 0 -0.49425095 0 0 -0.49425095 0 0 -0.49425095 
0 0 -0.49425095 0 0 -0.49425095 0 0 -0.49425095 
0 0 -0.49425095 0 0 -0.49425095 0 0 -0.49425095 
0 0 -0.49425095 0 0 -0.49425095 0 0 -0.49425095 
0 0 -0.49425095 0 0 -0.49425095 0 0 -0.49425095 
0 0 -0.49425095 0 0 -0.49425095 0 0 -0.49425095 
0 0 -0.49425095 0 0 -0.49425095 0 0 -0.49425095 
0 0 -0.49425095 0 0 -0.49425095 0 0 -0.49425095 
0 0 -0.49425095 0 0 -0.49425095 0 0 -0.49425095 
0 0 -0.49425095 0 0 -0.49425095 0 0 -0.49425095 
0 0 -0.49425095 0 0 -0.49425095 0 0 -0.49425095 
0 0 -0.49425095 0 0 -0.49425095 0 0 -0.49425095 
0 0 -0.49425095 0 0 -0.49425095 0 0 -0.49425095 
0 0 -0.49425095 0 0 -0.49425095 0 0 -0.49425095 