# vtk DataFile Version 4.1
Generated by LIGGGHTS
ASCII
DATASET POLYDATA
POINTS 1000 float
0.00455994 -0.0466405 0.00198156 0.0120927 -0.0366049 0.00162588 0.00614293 -0.0158436 0.00177886 
0.00235581 -0.01304 0.00153117 0.00519024 -0.0131545 0.00184127 0.0079913 -0.0136568 0.00185875 
0.0166342 -0.0125109 0.00203816 0.0220751 -0.012718 0.00156873 0.00256632 -0.0102107 0.00173894 
0.00541034 -0.0103062 0.00157209 0.00828653 -0.0102791 0.00156606 0.011144 -0.0102188 0.00148175 
0.0137121 -0.0114566 0.00166692 0.0193788 -0.0117773 0.00172985 0.0309826 -0.0100447 0.00185266 
-0.00439745 -0.00938101 0.00230281 -0.000219102 -0.00968313 0.00153863 0.0040283 -0.00778285 0.00151585 
0.00684411 -0.00785861 0.00190296 0.0096698 -0.007767 0.00157218 0.0124781 -0.00777066 0.00209396 
0.015043 -0.00892425 0.00158851 0.0204127 -0.00914562 0.00205006 0.0254859 -0.00882062 0.00187625 
0.0282851 -0.00918396 0.00149437 0.032342 -0.00754995 0.0016158 -0.0283028 -0.0077228 0.0022316 
-0.00625037 -0.00737436 0.00148192 -0.00344671 -0.00680538 0.00150924 -0.00063562 -0.00691634 0.0020289 
0.00811539 -0.00533352 0.00158152 0.0130811 -0.00503667 0.00156619 0.0156969 -0.00614262 0.00150117 
0.0182483 -0.00738861 0.00150538 0.0237897 -0.00652747 0.00180872 0.0271623 -0.00654306 0.00153643 
-0.0292909 -0.00510275 0.0016194 -0.00085478 -0.00250796 0.00151071 0.00641237 -0.00301444 0.00149697 
0.011302 -0.00282886 0.00187051 0.0175774 -0.00400016 0.00150261 0.0202619 -0.00358439 0.00231102 
0.0230014 -0.00379488 0.00156098 0.0257945 -0.00406881 0.00202033 0.0285865 -0.00407505 0.00148936 
0.0313018 -0.00490381 0.0016811 -0.00487474 -0.000284874 0.00221669 -0.00205104 -0.000121299 0.00251974 
0.00416471 -0.00124686 0.00152811 0.00680805 -0.00016874 0.0015511 0.0174835 -0.00115251 0.00154682 
0.022629 -0.000969753 0.00166775 0.0305775 -0.00227956 0.00248905 0.0360995 -0.00108109 0.0017248 
0.0065395 -0.0445786 0.00201906 0.00527888 -0.0420931 0.00262489 0.00354341 -0.0152834 0.00281561 
0.00566335 -0.0170725 0.00430914 0.00226477 -0.013263 0.00438166 0.00644129 -0.0143118 0.00415775 
0.00923332 -0.0125504 0.00417815 0.0147593 -0.013311 0.00404182 0.000843276 -0.010838 0.00391801 
0.00409933 -0.0111132 0.00397354 0.01207 -0.0123514 0.00383894 0.018264 -0.0120781 0.00434094 
0.0214093 -0.0118048 0.00418629 0.0230313 -0.0101803 0.00249361 -0.00251524 -0.00797593 0.00391854 
0.00265946 -0.00865382 0.00413355 0.0105059 -0.0100037 0.00424172 0.0136774 -0.00901314 0.00436326 
0.0174869 -0.00986842 0.00272022 0.0161301 -0.00763861 0.00389386 0.0189659 -0.00791042 0.00420462 
0.0215742 -0.00898792 0.00465008 0.0244194 -0.00873609 0.00451881 0.027249 -0.00877505 0.00412539 
-0.0301639 -0.0064661 0.00397006 -0.0274844 -0.00546221 0.00378487 -0.00732652 -0.00554955 0.00339931 
-0.00529123 -0.00739489 0.00415975 -0.000211008 -0.00660624 0.00484399 -0.00227075 -0.00515229 0.00352088 
0.00293912 -0.00590732 0.00338909 0.00606294 -0.0068442 0.00445203 0.0136841 -0.00616094 0.00412455 
0.0193347 -0.0051039 0.00453673 0.0212512 -0.00662276 0.00307652 0.0244158 -0.0058974 0.00452727 
0.0272599 -0.00592245 0.00432054 0.029734 -0.00704747 0.00269133 0.0320592 -0.00619629 0.00411427 
-0.0310993 -0.00383341 0.00344037 -0.00580152 -0.00326399 0.00418312 -0.00337448 -0.00262573 0.00283676 
0.000469911 -0.00449333 0.00306832 0.00188053 -0.00255718 0.00461714 0.00430995 -0.00340829 0.00338692 
0.00874732 -0.00301431 0.00311673 0.0133388 -0.00330273 0.00381324 0.0159319 -0.00444959 0.0037921 
0.0180945 -0.00259179 0.00393282 0.0213287 -0.00309524 0.00491075 0.0240673 -0.00310719 0.00410239 
0.0297406 -0.0045326 0.00404336 -0.00743669 -0.00142527 0.00273916 -0.000962255 -0.00236827 0.00434919 
0.000734158 -0.000583729 0.00289705 0.00643194 -0.00159786 0.00397671 0.0133142 -7.82158e-05 0.00499293 
0.0166599 -9.22753e-05 0.00406646 0.0200212 -0.000793679 0.00282697 0.0268344 -0.00245405 0.00415028 
0.028732 -0.000406613 0.00356863 0.00411062 -0.0150596 0.00560353 0.00821351 -0.0140398 0.00638379 
0.0109739 -0.0133198 0.0063126 -0.000303994 -0.0120631 0.0062239 0.00240263 -0.0111311 0.00628214 
0.00535535 -0.0125322 0.00609807 0.00716369 -0.0106888 0.0048706 0.0106019 -0.0105894 0.00703811 
0.0135239 -0.0120491 0.00627916 0.0175397 -0.0120746 0.00710169 0.0198219 -0.0106044 0.00623032 
0.0243842 -0.0101982 0.00696492 -0.000728435 -0.00928105 0.00572213 0.00174993 -0.00839363 0.00682505 
0.00496093 -0.00910823 0.00578456 0.00939445 -0.00762893 0.00533881 0.0119574 -0.00815735 0.006481 
0.0172112 -0.00970445 0.00554656 -0.00514318 -0.00745038 0.00701329 -0.00423037 -0.00517371 0.00558724 
-0.0022917 -0.00739688 0.00719061 0.00165457 -0.00552934 0.00670235 0.00658093 -0.0063513 0.00721898 
0.0115973 -0.00539532 0.00592299 0.021838 -0.00578675 0.00573671 0.0246209 -0.00734087 0.00699455 
-0.00823861 -0.00426924 0.00578762 -0.00585434 -0.0033144 0.00703172 -0.00154291 -0.00445328 0.00619151 
0.00430825 -0.00501825 0.00574643 0.0032754 -0.00272534 0.0071 0.00695896 -0.00419066 0.00503016 
0.00958941 -0.00338095 0.00581402 0.0126711 -0.00283851 0.00654249 0.0147509 -0.00477586 0.00638094 
0.0193641 -0.00355647 0.00693379 0.0233842 -0.00364241 0.00681655 0.0263717 -0.00415469 0.00639117 
-0.00755085 -0.00150876 0.00559845 -0.00350237 -0.0024228 0.00567494 0.000230953 -0.00233691 0.00693875 
0.00665646 -0.000185007 0.00643133 0.0152482 -0.00208389 0.00556426 0.017842 -0.00119546 0.00640945 
0.0224972 -0.000955302 0.0063827 0.0302888 -0.00205385 0.00531684 0.0326674 -0.00053917 0.00566199 
0.00379578 -0.0123318 0.00847519 0.0132482 -0.00769277 0.00896606 0.0156234 -0.00845146 0.00756904 
0.0192584 -0.00933886 0.00871819 0.0218344 -0.00903825 0.00749965 -0.00633505 -0.00554247 0.00877253 
-0.000505282 -0.00564679 0.00856683 0.00387106 -0.00682466 0.00791428 0.00652917 -0.0053464 0.00987935 
0.00935625 -0.00591422 0.00761043 0.0200715 -0.0068028 0.00771736 0.0226621 -0.00585862 0.00846428 
-0.00840163 -0.00259328 0.0080984 -0.00489552 -0.00327045 0.00971895 -0.000403953 -0.00260335 0.00971557 
0.00756417 -0.00370901 0.00778846 0.0103256 -0.0034444 0.00857765 0.012795 -0.00491739 0.00846818 
0.0167846 -0.00325041 0.00810068 -0.00221521 -0.00128162 0.00794889 0.00135444 -0.000528714 0.00885065 
0.00557004 -0.00179683 0.00852209 0.0145171 -0.00153654 0.00827718 0.0170823 -0.000594397 0.00909957 
0.0201782 -0.00105411 0.00804748 -0.0318556 -0.032555 0.00908621 0.00932082 -0.00532037 0.0104486 
0.0125944 -0.00260245 0.0101076 0.00349919 -0.0102358 0.0137122 0.0134513 -0.00572242 0.0141746 
0.01988 -0.00658548 0.013977 -0.0055848 -0.00262286 0.0137724 0.00446161 -0.0026273 0.0140156 
0.00839111 -0.00467737 0.0136877 0.0285673 -0.0043284 0.0137972 0.019515 -0.00186515 0.0136751 
0.0110937 -0.0129354 0.0156125 -0.00154334 -0.0101732 0.0148591 0.00706869 -0.0124446 0.0142525 
0.016809 -0.0109745 0.0161914 0.0064568 -0.00768496 0.0146289 0.011844 -0.00976446 0.014567 
0.0158248 -0.00806689 0.0152495 0.0219084 -0.00938161 0.014208 -0.00705797 -0.00547328 0.0158338 
-0.00367241 -0.00516981 0.016059 0.00349982 -0.0070736 0.0147614 0.0227121 -0.00706899 0.0164824 
0.0271361 -0.00566692 0.0161421 -0.00978838 -0.002504 0.0155502 -0.000521577 -0.00334463 0.0166578 
0.00836173 -0.00282971 0.0160787 0.0112205 -0.00349384 0.0147386 0.0245364 -0.00360176 0.0155665 
0.0272796 -0.00218533 0.016174 0.00654792 -0.0132181 0.0180341 0.0103648 -0.0132939 0.0189956 
0.0137241 -0.0100998 0.0170747 0.000578021 -0.00905996 0.018278 0.00600125 -0.00958303 0.0174407 
0.00936901 -0.00899664 0.0177452 0.0183862 -0.00838178 0.0170853 0.00287227 -0.0062379 0.0185253 
0.00663578 -0.00522061 0.0169453 0.015608 -0.00627634 0.017888 0.0200825 -0.00540089 0.016917 
-0.00661758 -0.00498749 0.0189945 -0.00229182 -0.00409767 0.0191059 0.0233522 -0.00458587 0.0190636 
-0.00569476 -0.00203973 0.0176885 0.0150257 -0.00243068 0.0171099 0.0196131 -0.00227081 0.0184355 
0.0041859 -0.0127503 0.0198398 0.00692926 -0.010494 0.0206671 -0.00376229 -0.00833338 0.019436 
0.00231845 -0.00865902 0.0207435 0.0103748 -0.00771657 0.0206662 0.0139207 -0.00880097 0.0203305 
0.0216941 -0.00991844 0.0193304 -0.000430001 -0.00660907 0.0197308 0.00755183 -0.00643588 0.0202881 
0.00639831 -0.00258572 0.020033 0.0110749 -0.00257683 0.0196511 0.0161083 -0.00401193 0.01981 
0.0286865 -0.00314983 0.0193674 -0.00961872 -0.00207077 0.0199243 0.00163857 -0.00168436 0.0194651 
0.0250395 -0.00175307 0.0195741 -0.031617 -0.0188311 0.0371353 0.0140098 -2.48526e-05 0.00223108 
-0.00940254 0.000257887 0.00153154 -0.00750407 0.0021733 0.00244804 -0.00351143 0.00213324 0.00157762 
0.020235 0.0306826 0.0198086 0.0163835 0.00147161 0.00169042 0.0215469 0.00157484 0.00237355 
0.036288 0.00161164 0.00264363 -0.0100741 0.00303912 0.00158259 -0.00559848 0.00406584 0.00147609 
0.0160596 0.00419676 0.00246385 0.0248568 0.00325197 0.00157389 0.0272811 0.00449014 0.00241882 
0.0339189 0.00317666 0.00243703 -0.011828 0.00741029 0.00204655 -0.00627876 0.00685677 0.00153421 
0.000593617 0.00598617 0.00164764 0.011483 0.00703209 0.0015107 0.0182666 0.00581631 0.00166897 
0.028296 0.00714711 0.00241305 0.0344766 0.00587811 0.00166615 0.00132358 0.00873836 0.00152811 
0.00902225 0.0085821 0.0015093 0.0115246 0.00988558 0.00158562 0.0329047 0.00825553 0.00152177 
-0.0118528 0.0102746 0.00208135 -0.00967995 0.0120381 0.00148506 -0.00696928 0.0114773 0.00219425 
-0.003608 0.0100213 0.00223678 -0.000900801 0.0105376 0.00147301 0.00361664 0.0102601 0.00225487 
0.00630099 0.011028 0.00159371 0.00913761 0.0114525 0.00161578 0.0140303 0.0111589 0.00195774 
0.0192385 0.0119227 0.00204896 0.0240596 0.0115453 0.00204064 0.0264623 0.0100851 0.00164091 
0.0292774 0.0104872 0.00147193 -0.0142676 0.0140264 0.00241567 -0.0114193 0.0141667 0.00228323 
-0.00871252 0.0147166 0.00151856 0.00426347 0.0129997 0.00190089 0.00956685 0.0142736 0.00183574 
0.0168368 0.0133683 0.0015025 0.0212196 0.0139993 0.00209382 0.0240409 0.0143818 0.001782 
[...]
POINT_DATA 1000
FIELD FieldData 7
id 1 1000 int
10 18 49 266 25 280 297 3 263 
22 12 290 285 53 32 36 282 268 
251 277 295 37 48 21 9 141 40 
302 17 2 16 50 30 46 15 39 
23 43 104 38 33 7 19 274 309 
247 191 107 235 6 138 164 279 248 
24 41 254 1 252 52 262 504 298 
256 301 296 272 27 58 306 520 258 
56 13 45 294 264 260 51 83 259 
270 253 28 287 278 31 273 4 281 
305 34 65 29 304 205 47 303 308 
44 8 5 42 289 261 292 291 54 
11 35 434 67 14 527 554 26 551 
558 509 531 267 535 555 544 543 501 
533 524 508 548 552 526 257 549 293 
525 534 528 286 284 503 507 506 255 
283 510 265 275 300 269 556 307 530 
529 276 536 158 299 288 547 511 689 
515 516 518 546 521 502 522 540 542 
532 538 512 519 523 505 545 539 517 
513 541 648 537 271 550 514 20 553 
557 769 758 800 806 764 783 788 790 
766 761 789 782 776 774 797 803 784 
757 796 763 767 804 753 799 793 752 
807 810 773 802 765 787 755 786 798 
762 791 772 794 759 785 771 754 770 
775 805 768 781 777 795 751 778 808 
756 760 780 801 792 779 809 57 378 
193 339 102 909 55 186 160 357 199 
161 131 242 218 363 89 429 112 331 
384 234 69 63 206 433 455 227 229 
237 118 243 123 116 211 238 157 130 
149 178 223 175 204 84 62 155 203 
165 80 169 194 183 472 154 249 179 
222 90 310 120 87 332 208 117 86 
127 182 110 64 430 105 407 404 75 
231 399 174 159 740 437 184 77 103 
195 484 367 98 236 360 151 177 143 
239 156 487 431 392 496 190 139 95 
91 233 416 397 323 113 389 482 72 
66 685 136 393 214 499 209 344 413 
202 330 328 724 96 232 359 423 94 
212 314 445 119 460 425 380 419 313 
101 85 122 73 213 189 147 99 92 
317 128 210 145 246 220 241 180 352 
448 142 185 78 88 198 61 100 408 
166 428 415 490 93 311 163 240 462 
492 570 346 427 471 387 146 59 221 
115 201 385 483 394 391 82 126 245 
196 226 109 106 412 495 379 465 347 
435 140 436 167 97 364 376 366 315 
464 188 341 451 422 463 418 402 60 
390 447 349 170 668 79 162 225 176 
439 224 153 334 76 388 121 124 197 
81 148 459 125 603 329 640 565 219 
370 320 749 401 134 192 114 207 111 
200 679 709 457 369 132 477 732 383 
688 698 449 486 468 382 129 68 655 
642 678 365 673 629 452 450 454 338 
680 563 335 398 727 666 438 173 172 
135 355 362 250 333 358 475 707 498 
152 70 466 396 456 561 343 476 340 
350 692 473 215 405 150 181 342 470 
622 598 494 74 480 137 244 368 373 
461 411 377 337 420 348 230 371 386 
674 409 406 414 481 474 594 714 395 
336 444 741 467 319 575 400 722 620 
322 728 560 171 581 702 592 479 318 
485 750 618 491 432 356 615 381 616 
71 564 442 228 426 735 372 623 458 
652 168 326 353 325 571 567 613 577 
663 441 573 351 601 695 469 596 703 
417 440 747 645 675 632 701 566 744 
579 670 593 738 730 589 316 656 611 
591 726 664 607 453 493 619 718 653 
625 410 609 446 626 606 354 217 108 
403 489 682 654 650 715 562 361 421 
497 488 617 599 610 624 700 424 710 
723 568 634 748 321 614 327 312 578 
646 660 733 739 585 588 743 375 672 
691 697 586 600 587 621 712 595 597 
576 643 651 644 559 590 716 602 628 
639 662 720 604 734 608 708 746 696 
631 686 681 690 635 500 729 693 638 
612 574 704 572 443 649 717 647 633 
711 659 731 627 684 569 705 669 582 
637 658 657 683 584 374 671 345 736 
630 580 745 719 742 324 721 583 713 
478 694 676 636 667 737 725 665 687 
661 641 699 677 706 605 216 144 133 
876 927 981 992 862 961 915 890 835 
843 901 979 856 924 917 912 859 982 
828 973 834 970 857 905 893 988 875 
885 818 989 821 860 929 187 959 921 
967 916 833 837 847 855 935 871 814 
910 813 870 883 866 951 914 867 824 
897 976 957 949 881 963 948 968 902 
933 845 993 852 889 822 987 925 819 
947 940 952 986 811 978 848 906 898 
839 878 919 922 945 974 886 984 971 
907 841 840 900 931 911 937 817 930 
964 936 895 863 812 953 990 943 873 
954 950 934 894 966 977 826 844 904 
923 836 816 838 868 944 865 965 899 
854 827 830 858 874 879 913 991 939 
853 861 932 877 825 896 997 941 869 
942 882 891 864 985 926 903 975 849 
998 872 842 888 851 969 983 823 955 
920 908 846 815 1000 960 938 884 995 
956 996 994 829 880 831 918 820 980 
999 972 887 832 892 962 850 946 928 
958 
type 1 1000 int
1 1 1 1 1 1 1 1 1 
1 1 1 1 1 1 1 1 1 
1 1 1 1 1 1 1 1 1 
1 1 1 1 1 1 1 1 1 
1 1 1 1 1 1 1 1 1 
1 1 1 1 1 1 1 1 1 
1 1 1 1 1 1 1 1 1 
1 1 1 1 1 1 1 1 1 
1 1 1 1 1 1 1 1 1 
1 1 1 1 1 1 1 1 1 
1 1 1 1 1 1 1 1 1 
1 1 1 1 1 1 1 1 1 
1 1 1 1 1 1 1 1 1 
1 1 1 1 1 1 1 1 1 
1 1 1 1 1 1 1 1 1 
1 1 1 1 1 1 1 1 1 
1 1 1 1 1 1 1 1 1 
1 1 1 1 1 1 1 1 1 
1 1 1 1 1 1 1 1 1 
1 1 1 1 1 1 1 1 1 
1 1 1 1 1 1 1 1 1 
1 1 1 1 1 1 1 1 1 
1 1 1 1 1 1 1 1 1 
1 1 1 1 1 1 1 1 1 
1 1 1 1 1 1 1 1 1 
1 1 1 1 1 1 1 1 1 
1 1 1 1 1 1 1 1 1 
1 1 1 1 1 1 1 1 1 
1 1 1 1 1 1 1 1 1 
1 1 1 1 1 1 1 1 1 
1 1 1 1 1 1 1 1 1 
1 1 1 1 1 1 1 1 1 
1 1 1 1 1 1 1 1 1 
1 1 1 1 1 1 1 1 1 
1 1 1 1 1 1 1 1 1 
1 1 1 1 1 1 1 1 1 
1 1 1 1 1 1 1 1 1 
1 1 1 1 1 1 1 1 1 
1 1 1 1 1 1 1 1 1 
1 1 1 1 1 1 1 1 1 
1 1 1 1 1 1 1 1 1 
1 1 1 1 1 1 1 1 1 
1 1 1 1 1 1 1 1 1 
1 1 1 1 1 1 1 1 1 
1 1 1 1 1 1 1 1 1 
1 1 1 1 1 1 1 1 1 
1 1 1 1 1 1 1 1 1 
1 1 1 1 1 1 1 1 1 
1 1 1 1 1 1 1 1 1 
1 1 1 1 1 1 1 1 1 
1 1 1 1 1 1 1 1 1 
1 1 1 1 1 1 1 1 1 
1 1 1 1 1 1 1 1 1 
1 1 1 1 1 1 1 1 1 
1 1 1 1 1 1 1 1 1 
1 1 1 1 1 1 1 1 1 
1 1 1 1 1 1 1 1 1 
1 1 1 1 1 1 1 1 1 
1 1 1 1 1 1 1 1 1 
1 1 1 1 1 1 1 1 1 
1 1 1 1 1 1 1 1 1 
1 1 1 1 1 1 1 1 1 
1 1 1 1 1 1 1 1 1 
1 1 1 1 1 1 1 1 1 
1 1 1 1 1 1 1 1 1 
1 1 1 1 1 1 1 1 1 
1 1 1 1 1 1 1 1 1 
1 1 1 1 1 1 1 1 1 
1 1 1 1 1 1 1 1 1 
1 1 1 1 1 1 1 1 1 
1 1 1 1 1 1 1 1 1 
1 1 1 1 1 1 1 1 1 
1 1 1 1 1 1 1 1 1 
1 1 1 1 1 1 1 1 1 
1 1 1 1 1 1 1 1 1 
1 1 1 1 1 1 1 1 1 
1 1 1 1 1 1 1 1 1 
1 1 1 1 1 1 1 1 1 
1 1 1 1 1 1 1 1 1 
1 1 1 1 1 1 1 1 1 
1 1 1 1 1 1 1 1 1 
1 1 1 1 1 1 1 1 1 
1 1 1 1 1 1 1 1 1 
1 1 1 1 1 1 1 1 1 
1 1 1 1 1 1 1 1 1 
1 1 1 1 1 1 1 1 1 
1 1 1 1 1 1 1 1 1 
1 1 1 1 1 1 1 1 1 
1 1 1 1 1 1 1 1 1 
1 1 1 1 1 1 1 1 1 
1 1 1 1 1 1 1 1 1 
1 1 1 1 1 1 1 1 1 
1 1 1 1 1 1 1 1 1 
1 1 1 1 1 1 1 1 1 
1 1 1 1 1 1 1 1 1 
1 1 1 1 1 1 1 1 1 
1 1 1 1 1 1 1 1 1 
1 1 1 1 1 1 1 1 1 
1 1 1 1 1 1 1 1 1 
1 1 1 1 1 1 1 1 1 
1 1 1 1 1 1 1 1 1 
1 1 1 1 1 1 1 1 1 
1 1 1 1 1 1 1 1 1 
1 1 1 1 1 1 1 1 1 
1 1 1 1 1 1 1 1 1 
1 1 1 1 1 1 1 1 1 
1 1 1 1 1 1 1 1 1 
1 1 1 1 1 1 1 1 1 
1 1 1 1 1 1 1 1 1 
1 1 1 1 1 1 1 1 1 
1 1 1 1 1 1 1 1 1 
1 
i 3 1000 int
0 0 0 0 0 0 0 0 0 
0 0 0 0 0 0 0 0 0 
0 0 0 0 0 0 0 0 0 
0 0 0 0 0 0 0 0 0 
0 0 0 0 0 0 0 0 0 
0 0 0 0 0 0 0 0 0 
0 0 0 0 0 0 0 0 0 
0 0 0 0 0 0 0 0 0 
0 0 0 0 0 0 0 0 0 
0 0 0 0 0 0 0 0 0 
0 0 0 0 0 0 0 0 0 
0 0 0 0 0 0 0 0 0 
0 0 0 0 0 0 0 0 0 
0 0 0 0 0 0 0 0 0 
0 0 0 0 0 0 0 0 0 
0 0 0 0 0 0 0 0 0 
0 0 0 0 0 0 0 0 0 
0 0 0 0 0 0 0 0 0 
0 0 0 0 0 0 0 0 0 
0 0 0 0 0 0 0 0 0 
0 0 0 0 0 0 0 0 0 
0 0 0 0 0 0 0 0 0 
0 0 0 0 0 0 0 0 0 
0 0 0 0 0 0 0 0 0 
0 0 0 0 0 0 0 0 0 
0 0 0 0 0 0 0 0 0 
0 0 0 0 0 0 0 0 0 
0 0 0 0 0 0 0 0 0 
0 0 0 0 0 0 0 0 0 
0 0 0 0 0 0 0 0 0 
0 0 0 0 0 0 0 0 0 
0 0 0 0 0 0 0 0 0 
0 0 0 0 0 0 0 0 0 
0 0 0 0 0 0 0 0 0 
0 0 0 0 0 0 0 0 0 
0 0 0 0 0 0 0 0 0 
0 0 0 0 0 0 0 0 0 
0 0 0 0 0 0 0 0 0 
0 0 0 0 0 0 0 0 0 
0 0 0 0 0 0 0 0 0 
0 0 0 0 0 0 0 0 0 
0 0 0 0 0 0 0 0 0 
0 0 0 0 0 0 0 0 0 
0 0 0 0 0 0 0 0 0 
0 0 0 0 0 0 0 0 0 
0 0 0 0 0 0 0 0 0 
0 0 0 0 0 0 0 0 0 
0 0 0 0 0 0 0 0 0 
0 0 0 0 0 0 0 0 0 
0 0 0 0 0 0 0 0 0 
0 0 0 0 0 0 0 0 0 
0 0 0 0 0 0 0 0 0 
0 0 0 0 0 0 0 0 0 
0 0 0 0 0 0 0 0 0 
0 0 0 0 0 0 0 0 0 
0 0 0 0 0 0 0 0 0 
0 0 0 0 0 0 0 0 0 
0 0 0 0 0 0 0 0 0 
0 0 0 0 0 0 0 0 0 
0 0 0 0 0 0 0 0 0 
0 0 0 0 0 0 0 0 0 
0 0 0 0 0 0 0 0 0 
0 0 0 0 0 0 0 0 0 
0 0 0 0 0 0 0 0 0 
0 0 0 0 0 0 0 0 0 
0 0 0 0 0 0 0 0 0 
0 0 0 0 0 0 0 0 0 
0 0 0 0 0 0 0 0 0 
0 0 0 0 0 0 0 0 0 
0 0 0 0 0 0 0 0 0 
0 0 0 0 0 0 0 0 0 
0 0 0 0 0 0 0 0 0 
0 0 0 0 0 0 0 0 0 
0 0 0 0 0 0 0 0 0 
0 0 0 0 0 0 0 0 0 
0 0 0 0 0 0 0 0 0 
0 0 0 0 0 0 0 0 0 
0 0 0 0 0 0 0 0 0 
0 0 0 0 0 0 0 0 0 
0 0 0 0 0 0 0 0 0 
0 0 0 0 0 0 0 0 0 
0 0 0 0 0 0 0 0 0 
0 0 0 0 0 0 0 0 0 
0 0 0 0 0 0 0 0 0 
0 0 0 0 0 0 0 0 0 
0 0 0 0 0 0 0 0 0 
0 0 0 0 0 0 0 0 0 
0 0 0 0 0 0 0 0 0 
0 0 0 0 0 0 0 0 0 
0 0 0 0 0 0 0 0 0 
0 0 0 0 0 0 0 0 0 
0 0 0 0 0 0 0 0 0 
0 0 0 0 0 0 0 0 0 
0 0 0 0 0 0 0 0 0 
0 0 0 0 0 0 0 0 0 
0 0 0 0 0 0 0 0 0 
0 0 0 0 0 0 0 0 0 
0 0 0 0 0 0 0 0 0 
0 0 0 0 0 0 0 0 0 
0 0 0 0 0 0 0 0 0 
0 0 0 0 0 0 0 0 0 
0 0 0 0 0 0 0 0 0 
0 0 0 0 0 0 0 0 0 
0 0 0 0 0 0 0 0 0 
0 0 0 0 0 0 0 0 0 
0 0 0 0 0 0 0 0 0 
0 0 0 0 0 0 0 0 0 
0 0 0 0 0 0 0 0 0 
0 0 0 0 0 0 0 0 0 
0 0 0 0 0 0 0 0 0 
0 0 0 0 0 0 0 0 0 
0 0 0 0 0 0 0 0 0 
0 0 0 0 0 0 0 0 0 
0 0 0 0 0 0 0 0 0 
0 0 0 0 0 0 0 0 0 
0 0 0 0 0 0 0 0 0 
0 0 0 0 0 0 0 0 0 
0 0 0 0 0 0 0 0 0 
0 0 0 0 0 0 0 0 0 
0 0 0 0 0 0 0 0 0 
0 0 0 0 0 0 0 0 0 
0 0 0 0 0 0 0 0 0 
0 0 0 0 0 0 0 0 0 
0 0 0 0 0 0 0 0 0 
0 0 0 0 0 0 0 0 0 
0 0 0 0 0 0 0 0 0 
0 0 0 0 0 0 0 0 0 
0 0 0 0 0 0 0 0 0 
0 0 0 0 0 0 0 0 0 
0 0 0 0 0 0 0 0 0 
0 0 0 0 0 0 0 0 0 
0 0 0 0 0 0 0 0 0 
0 0 0 0 0 0 0 0 0 
0 0 0 0 0 0 0 0 0 
0 0 0 0 0 0 0 0 0 
0 0 0 0 0 0 0 0 0 
0 0 0 0 0 0 0 0 0 
0 0 0 0 0 0 0 0 0 
0 0 0 0 0 0 0 0 0 
0 0 0 0 0 0 0 0 0 
0 0 0 0 0 0 0 0 0 
0 0 0 0 0 0 0 0 0 
0 0 0 0 0 0 0 0 0 
0 0 0 0 0 0 0 0 0 
0 0 0 0 0 0 0 0 0 
0 0 0 0 0 0 0 0 0 
0 0 0 0 0 0 0 0 0 
0 0 0 0 0 0 0 0 0 
0 0 0 0 0 0 0 0 0 
0 0 0 0 0 0 0 0 0 
0 0 0 0 0 0 0 0 0 
0 0 0 0 0 0 0 0 0 
0 0 0 0 0 0 0 0 0 
0 0 0 0 0 0 0 0 0 
0 0 0 0 0 0 0 0 0 
0 0 0 0 0 0 0 0 0 
0 0 0 0 0 0 0 0 0 
0 0 0 0 0 0 0 0 0 
0 0 0 0 0 0 0 0 0 
0 0 0 0 0 0 0 0 0 
0 0 0 0 0 0 0 0 0 
0 0 0 0 0 0 0 0 0 
0 0 0 0 0 0 0 0 0 
0 0 0 0 0 0 0 0 0 
0 0 0 0 0 0 0 0 0 
0 0 0 0 0 0 0 0 0 
0 0 0 0 0 0 0 0 0 
0 0 0 0 0 0 0 0 0 
0 0 0 0 0 0 0 0 0 
0 0 0 0 0 0 0 0 0 
0 0 0 0 0 0 0 0 0 
0 0 0 0 0 0 0 0 0 
0 0 0 0 0 0 0 0 0 
0 0 0 0 0 0 0 0 0 
0 0 0 0 0 0 0 0 0 
0 0 0 0 0 0 0 0 0 
0 0 0 0 0 0 0 0 0 
0 0 0 0 0 0 0 0 0 
0 0 0 0 0 0 0 0 0 
0 0 0 0 0 0 0 0 0 
0 0 0 0 0 0 0 0 0 
0 0 0 0 0 0 0 0 0 
0 0 0 0 0 0 0 0 0 
0 0 0 0 0 0 0 0 0 
0 0 0 0 0 0 0 0 0 
0 0 0 0 0 0 0 0 0 
0 0 0 0 0 0 0 0 0 
0 0 0 0 0 0 0 0 0 
0 0 0 0 0 0 0 0 0 
0 0 0 0 0 0 0 0 0 
0 0 0 0 0 0 0 0 0 
0 0 0 0 0 0 0 0 0 
0 0 0 0 0 0 0 0 0 
0 0 0 0 0 0 0 0 0 
0 0 0 0 0 0 0 0 0 
0 0 0 0 0 0 0 0 0 
0 0 0 0 0 0 0 0 0 
0 0 0 0 0 0 0 0 0 
0 0 0 0 0 0 0 0 0 
0 0 0 0 0 0 0 0 0 
0 0 0 0 0 0 0 0 0 
0 0 0 0 0 0 0 0 0 
0 0 0 0 0 0 0 0 0 
0 0 0 0 0 0 0 0 0 
0 0 0 0 0 0 0 0 0 
0 0 0 0 0 0 0 0 0 
0 0 0 0 0 0 0 0 0 
0 0 0 0 0 0 0 0 0 
0 0 0 0 0 0 0 0 0 
0 0 0 0 0 0 0 0 0 
0 0 0 0 0 0 0 0 0 
0 0 0 0 0 0 0 0 0 
0 0 0 0 0 0 0 0 0 
0 0 0 0 0 0 0 0 0 
0 0 0 0 0 0 0 0 0 
0 0 0 0 0 0 0 0 0 
0 0 0 0 0 0 0 0 0 
0 0 0 0 0 0 0 0 0 
0 0 0 0 0 0 0 0 0 
0 0 0 0 0 0 0 0 0 
0 0 0 0 0 0 0 0 0 
0 0 0 0 0 0 0 0 0 
0 0 0 0 0 0 0 0 0 
0 0 0 0 0 0 0 0 0 
0 0 0 0 0 0 0 0 0 
0 0 0 0 0 0 0 0 0 
0 0 0 0 0 0 0 0 0 
0 0 0 0 0 0 0 0 0 
0 0 0 0 0 0 0 0 0 
0 0 0 0 0 0 0 0 0 
0 0 0 0 0 0 0 0 0 
0 0 0 0 0 0 0 0 0 
0 0 0 0 0 0 0 0 0 
0 0 0 0 0 0 0 0 0 
0 0 0 0 0 0 0 0 0 
0 0 0 0 0 0 0 0 0 
0 0 0 0 0 0 0 0 0 
0 0 0 0 0 0 0 0 0 
0 0 0 0 0 0 0 0 0 
0 0 0 0 0 0 0 0 0 
0 0 0 0 0 0 0 0 0 
0 0 0 0 0 0 0 0 0 
0 0 0 0 0 0 0 0 0 
0 0 0 0 0 0 0 0 0 
0 0 0 0 0 0 0 0 0 
0 0 0 0 0 0 0 0 0 
0 0 0 0 0 0 0 0 0 
0 0 0 0 0 0 0 0 0 
0 0 0 0 0 0 0 0 0 
0 0 0 0 0 0 0 0 0 
0 0 0 0 0 0 0 0 0 
0 0 0 0 0 0 0 0 0 
0 0 0 0 0 0 0 0 0 
0 0 0 0 0 0 0 0 0 
0 0 0 0 0 0 0 0 0 
0 0 0 0 0 0 0 0 0 
0 0 0 0 0 0 0 0 0 
0 0 0 0 0 0 0 0 0 
0 0 0 0 0 0 0 0 0 
0 0 0 0 0 0 0 0 0 
0 0 0 0 0 0 0 0 0 
0 0 0 0 0 0 0 0 0 
0 0 0 0 0 0 0 0 0 
0 0 0 0 0 0 0 0 0 
0 0 0 0 0 0 0 0 0 
0 0 0 0 0 0 0 0 0 
0 0 0 0 0 0 0 0 0 
0 0 0 0 0 0 0 0 0 
0 0 0 0 0 0 0 0 0 
0 0 0 0 0 0 0 0 0 
0 0 0 0 0 0 0 0 0 
0 0 0 0 0 0 0 0 0 
0 0 0 0 0 0 0 0 0 
0 0 0 0 0 0 0 0 0 
0 0 0 0 0 0 0 0 0 
0 0 0 0 0 0 0 0 0 
0 0 0 0 0 0 0 0 0 
0 0 0 0 0 0 0 0 0 
0 0 0 0 0 0 0 0 0 
0 0 0 0 0 0 0 0 0 
0 0 0 0 0 0 0 0 0 
0 0 0 0 0 0 0 0 0 
0 0 0 0 0 0 0 0 0 
0 0 0 0 0 0 0 0 0 
0 0 0 0 0 0 0 0 0 
0 0 0 0 0 0 0 0 0 
0 0 0 0 0 0 0 0 0 
0 0 0 0 0 0 0 0 0 
0 0 0 0 0 0 0 0 0 
0 0 0 0 0 0 0 0 0 
0 0 0 0 0 0 0 0 0 
0 0 0 0 0 0 0 0 0 
0 0 0 0 0 0 0 0 0 
0 0 0 0 0 0 0 0 0 
0 0 0 0 0 0 0 0 0 
0 0 0 0 0 0 0 0 0 
0 0 0 0 0 0 0 0 0 
0 0 0 0 0 0 0 0 0 
0 0 0 0 0 0 0 0 0 
0 0 0 0 0 0 0 0 0 
0 0 0 0 0 0 0 0 0 
0 0 0 0 0 0 0 0 0 
0 0 0 0 0 0 0 0 0 
0 0 0 0 0 0 0 0 0 
0 0 0 0 0 0 0 0 0 
0 0 0 0 0 0 0 0 0 
0 0 0 0 0 0 0 0 0 
0 0 0 0 0 0 0 0 0 
0 0 0 0 0 0 0 0 0 
0 0 0 0 0 0 0 0 0 
0 0 0 0 0 0 0 0 0 
0 0 0 0 0 0 0 0 0 
0 0 0 0 0 0 0 0 0 
0 0 0 0 0 0 0 0 0 
0 0 0 0 0 0 0 0 0 
0 0 0 0 0 0 0 0 0 
0 0 0 0 0 0 0 0 0 
0 0 0 0 0 0 0 0 0 
0 0 0 0 0 0 0 0 0 
0 0 0 0 0 0 0 0 0 
0 0 0 0 0 0 0 0 0 
0 0 0 0 0 0 0 0 0 
0 0 0 0 0 0 0 0 0 
0 0 0 0 0 0 0 0 0 
0 0 0 0 0 0 0 0 0 
0 0 0 0 0 0 0 0 0 
0 0 0 0 0 0 0 0 0 
0 0 0 0 0 0 0 0 0 
0 0 0 0 0 0 0 0 0 
0 0 0 0 0 0 0 0 0 
0 0 0 0 0 0 0 0 0 
0 0 0 0 0 0 0 0 0 
0 0 0 0 0 0 0 0 0 
0 0 0 
v 3 1000 double
0.16800893191 0.11735981514 0.028711670737 -0.28103571366 0.42233061919 -0.037614672044 -0.025247252081 -0.011304665864 0.020322313035 
-0.0084337287811 -0.0012001862249 0.0081385529398 -0.015110345126 -0.0048618900557 0.011674580123 -0.0024511321192 -0.010299086852 0.036579966237 
-0.0013628442242 0.010807016386 -0.02769435693 -0.011900587745 -0.023634543298 0.0036893337076 -0.0028194748862 0.015747115004 0.015903264489 
-0.0065624940211 0.0099669684737 -0.00053679859526 0.005556392054 -0.0097348255462 0.0016159956855 0.018446740346 -0.025130978236 0.0049672562107 
0.030389853673 -0.031307381429 0.022146759699 0.0077183995037 -0.024840952108 0.016748832562 -0.03617373627 0.041818989225 -0.037238036662 
-0.05428303403 0.022900716422 -0.016884087073 -0.0045466983391 -0.0082952140962 0.0056062276625 0.0066068285837 0.018687415287 0.0062968398344 
0.012536005456 -0.0043160076592 0.04675010976 0.018941355651 -0.019551888299 0.057362334109 0.01767728354 -0.01921027496 0.016493170408 
0.0085101299877 -0.020638421595 0.016630730357 0.009343724997 -0.017057344218 -0.0015276836383 -0.002234595605 0.0042708021814 0.01044122991 
-0.011027039854 0.048137751836 -0.010108391647 -0.011324407444 0.014614150274 -0.014877968426 -0.11678426344 -0.019839226572 0.16462242832 
-0.029245717526 0.057897032805 -0.0085402102487 -0.01665519865 0.021983619975 -0.013773004534 -0.0034426866007 -0.011182946077 -0.019401187477 
0.026004089571 -0.021027857925 0.051539588242 0.017447107074 -0.012877993948 0.0080003688989 0.004235604268 -0.019655762778 0.0033868262147 
0.009352404928 -0.02263292186 -0.0070608522252 -0.023197774221 -0.013639419268 -0.00589207301 -0.0089950042611 0.027206736359 0.0089075558392 
-0.32369847982 -0.11381326985 0.034212458633 0.014011811449 0.0091038673316 -0.0041961544129 0.018669271073 -0.0090480435295 0.018120586138 
0.0066042862191 -0.024083978475 0.021675225581 -0.016822594179 -0.036981820212 -0.0022850433686 -0.020451724402 -0.020717199923 -0.023818169399 
-0.03429634671 -0.012529187463 -0.039443626289 -0.023909039127 0.014430707114 -0.030786641654 0.0026605118911 0.024375080269 0.0034073272717 
-0.0023865425431 0.019735535445 0.0073868065204 0.0076980142248 0.006237213838 0.00049292575036 0.01086066543 0.0021825667935 0.01448733821 
0.0076448875065 -0.015547198047 0.038431680328 0.0038030484107 -0.0016772397543 0.0074710732775 -0.018621722905 -0.038343721678 -0.0069839553344 
-0.061524781918 0.0019039400066 -0.052213159004 0.020012274349 -0.0035570946665 0.033008119285 -0.07505273232 0.0010788649026 -0.069085262808 
-0.15985879119 0.37245415226 0.16295901813 -0.19128933079 0.35615219758 -0.025451813125 -0.012011996202 -0.00036876723812 0.031946661792 
0.0066856952385 0.005263718682 0.032757670183 -0.0064640182052 0.0058569481926 0.024929116615 0.0031373215883 -0.0033542095498 0.0089693399479 
-0.0036837753589 0.01928202855 0.054864730918 0.025028994199 0.017991025638 -0.0041794352965 -0.01122874718 0.012375036859 0.02038566986 
-0.0049587165328 0.0053730351954 0.0092116959935 0.0078491892205 -0.020782168714 0.029851090567 -0.0083799873444 -0.0074752522461 -0.001634695212 
0.015257639095 -0.010283257003 0.0078748365485 0.0066442831405 -0.013494057406 0.00034337252938 -0.028139810122 0.00067532850917 -0.020065927413 
0.0088233589236 0.013331853154 0.011772458521 0.049637860429 0.0098561105948 -0.02154723448 0.024459936518 0.0021969482079 0.030191863832 
0.0095791366704 -0.010384599805 -0.0070570035715 0.017108666264 -0.011804680684 -0.0083329730953 0.006409956737 -0.0076540803916 -0.013343585841 
0.0014322200292 -0.0048566748866 -0.0075152701201 -0.0093599987878 0.00050763733221 0.0052825913298 -0.0018230010387 0.034333005901 0.0045176611362 
-0.23925101003 -0.083741663022 0.092889836826 -0.32184291687 0.11134030875 0.075605371865 -0.021179360675 0.037964291159 -0.0024114166411 
-0.025684795812 0.015214031966 -0.012308476268 -0.016563461412 -0.023872648635 -0.0022232745562 0.0034576935924 -0.0048403773283 -0.016327731425 
0.019631510326 0.0030550591816 0.005403152851 -0.0019183672878 -0.01114645517 0.044274003502 0.014990744959 -0.0085010913509 0.011440108076 
-0.0082522401258 -0.012307206671 -0.018786761936 -0.0014849589734 -0.0027494889771 -0.0069385114504 -0.014380684665 0.015924933778 -0.013886464352 
-0.013861778546 0.0053593709068 0.0063606464431 -0.0049202922081 0.019030002297 0.0028303319425 0.010973159776 0.012550760898 -0.012907955315 
-0.36545649837 -0.1120366219 0.029653404425 0.00053178067608 0.0082418698196 0.011662917652 0.0066969186398 -0.0011349394625 -0.0060255563192 
0.013449337287 -0.0071812780427 -0.0058601908407 0.0023750991946 -0.010042311378 0.016020084539 0.022104636987 -0.0074929634012 0.026923611157 
0.031602554578 -0.027476623847 0.03049833676 0.020954057329 -0.0033991001968 0.0031644285403 0.008966361674 -0.022559705195 0.0089146347969 
-0.0018989944111 -0.03510857344 -0.010064277671 -0.023642520426 -2.3675609386e-05 -0.022333905977 -0.03392606523 0.022499005407 -0.047280909964 
0.0087131718094 0.00097057672692 0.011749585867 -0.012621578029 -0.0022583890776 0.020464635042 0.0070143472016 -0.010562987008 -0.003829675448 
0.013806510364 0.0015312105116 0.014302299404 0.026884273378 -0.007618345659 0.017794363891 0.0088686925591 -0.012646182694 -0.021969084403 
0.0047366772035 -0.031470208752 -0.0046081812411 -0.043791942224 -0.026485292408 -0.030182155705 -0.017364353045 -0.030088596068 -0.052059521763 
-0.013033425077 -0.046539528303 0.010216566651 0.016662047306 0.021177908468 0.031346397273 0.021280699473 -0.022643191931 0.037694318358 
0.011142175781 0.062365594138 0.063512610698 -0.028247288876 0.017982869271 0.017939904005 -0.0087920181454 0.0078827953831 0.012802875604 
-0.0073444208285 0.0052120600543 -0.0039341848241 0.0095006817072 0.032995353709 0.06660623963 0.032497313994 0.06249537851 -0.0035456039031 
0.053571965753 0.063797765677 -0.0010756333925 0.022531597788 0.02516258182 0.017867561368 -0.0064920010284 0.0090906364901 -0.011066028806 
0.017603925391 0.025847035424 0.029326625862 -0.019934882031 0.0033288030593 0.010549212536 -0.0093114255801 0.0094093125855 0.020917948909 
0.0046229463715 0.011941077255 0.049393048883 0.019809829859 -0.017583431914 0.064444603532 0.043036623 0.014245451765 0.013360482394 
0.0069636405709 0.0023469028262 -0.013672759857 -0.043562520175 0.0041100736405 -0.0096569381637 -0.0038663967284 -0.0011275915561 -0.0053742135949 
-0.04519268351 -0.0040354970745 0.005827852661 -0.022840920729 -0.016734579003 0.010418725257 -0.0023110003449 0.0098520749504 0.031861725998 
0.019850801268 -0.020735089938 0.030054268743 -0.00078038965977 0.0057584939614 -0.014926381429 -0.0061654405125 0.022874208957 -0.0049051005522 
-0.010349048628 0.016793528242 0.0016983444365 0.0089413845458 0.0043960590996 0.0085791782036 7.8987335791e-05 -0.014110414784 -0.012471153532 
-0.0080337965457 -0.0038033553108 0.024423326773 0.0087838764324 -0.0089979139863 0.0037255135278 0.011442926242 -0.0090121427744 0.027071298986 
0.011488249062 -0.025997188618 0.014294044461 0.010036274893 0.0053095957333 0.0089199005979 0.017468589201 0.0037260341749 0.012670852064 
-4.0427806171e-05 -0.017956924901 -0.0013184273515 -0.012381179256 0.023780995958 -0.035090659165 -0.063505716707 0.034782274964 -0.044516430259 
-0.0052153301078 0.0068520168632 0.022216064586 0.010187542281 -0.0041703222542 -0.0068411571851 0.0028883857024 -0.0092831381557 -0.012620182741 