# vtk DataFile Version 4.1
Generated by LIGGGHTS
ASCII
DATASET POLYDATA
POINTS 1000 float
0.00167495 -0.0205313 0.00255676 -0.000665854 -0.0193037 0.00148273 0.00590117 -0.0160476 0.00150891 
0.00211399 -0.0132728 0.00150119 0.00496278 -0.0133543 0.00169474 0.00776512 -0.0138947 0.00153385 
0.0165187 -0.0126363 0.00187509 0.0219379 -0.0128948 0.00148488 -0.00471007 -0.0123101 0.00151053 
0.00241937 -0.0104508 0.00164706 0.00528198 -0.0104975 0.00149521 0.0081472 -0.0104346 0.00152021 
0.0109968 -0.0103668 0.00148248 0.0136047 -0.0115238 0.00151384 0.0192541 -0.0119188 0.00157032 
0.0228921 -0.0103695 0.00241885 -0.0416152 -0.0084393 0.00171957 -0.038903 -0.00755663 0.00171263 
-0.00639008 -0.00762044 0.00147462 -0.00453686 -0.00958725 0.00235387 -0.000382508 -0.00990803 0.0015182 
0.00384286 -0.00800344 0.00159576 0.00668617 -0.00800497 0.00164399 0.00952853 -0.00791246 0.00150832 
0.0123379 -0.00791472 0.00206531 0.0149349 -0.00901334 0.00151044 0.0202776 -0.00929731 0.00195867 
0.0253582 -0.00905448 0.00185692 0.0281579 -0.00945163 0.00150028 0.0322035 -0.0078789 0.00157204 
-0.0410137 -0.00564605 0.00154793 -0.00359436 -0.00701936 0.00151376 -0.000789468 -0.00714339 0.00206869 
0.00801122 -0.00548111 0.00152876 0.0129232 -0.0051802 0.00148672 0.015555 -0.00624344 0.00151054 
0.0181155 -0.00749453 0.00148547 0.0236886 -0.00674553 0.00183105 0.0270754 -0.0068001 0.00152036 
0.0312294 -0.00519885 0.00168719 -0.000910105 -0.00270855 0.00147326 0.00628396 -0.00320033 0.00150651 
0.0111277 -0.00299479 0.00181273 0.0174968 -0.00416709 0.00149402 0.0201863 -0.00376196 0.00229092 
0.0229256 -0.00401033 0.00158141 0.025707 -0.00434415 0.002063 0.0285132 -0.00433045 0.00154174 
-0.00494613 -0.000446886 0.00206929 -0.00212334 -0.000297429 0.00240445 0.00402481 -0.00144596 0.00152071 
0.00666552 -0.000368832 0.0014981 0.0139753 -0.000153652 0.0019865 0.0175058 -0.00132205 0.00146806 
0.0225858 -0.00117402 0.0016118 0.0347788 -0.00195613 0.001597 -0.000612059 -0.0221221 0.00192757 
0.00337309 -0.0155235 0.00269799 0.00558842 -0.0173319 0.00404388 0.00216738 -0.0135349 0.00434852 
0.00631921 -0.0145731 0.00390861 0.00908545 -0.0128837 0.00384462 0.0145398 -0.0133749 0.00378646 
0.000738892 -0.0111114 0.0038462 0.00397264 -0.0113811 0.00385418 0.00701615 -0.01105 0.00454689 
0.011868 -0.0123979 0.00358801 0.0100789 -0.0102298 0.00417078 0.0173773 -0.0100095 0.00260506 
0.018168 -0.0122519 0.00418038 0.0212563 -0.0119932 0.00409406 -0.00547568 -0.00758968 0.00417507 
-0.00267934 -0.00815595 0.00395784 0.00256785 -0.00889901 0.00403312 0.0135209 -0.00910121 0.00437256 
0.0160111 -0.00781268 0.00386227 0.0188386 -0.00810041 0.00416284 0.0214408 -0.00918499 0.0045632 
0.0242783 -0.00896349 0.00449527 0.0271014 -0.00902597 0.00411832 0.0306749 -0.00998906 0.00273906 
-0.0432106 -0.00653869 0.00312773 -0.0405448 -0.00706457 0.00398967 -0.00745855 -0.00572548 0.00329193 
-0.000367412 -0.00678784 0.00488511 -0.00242305 -0.00534033 0.00352331 0.00279823 -0.0061046 0.00344205 
0.00590643 -0.00690741 0.00416178 0.013593 -0.00627412 0.00404242 0.0191948 -0.00527 0.00449954 
0.0211001 -0.00680113 0.00301841 0.0243371 -0.00610786 0.00454012 0.0271866 -0.00617745 0.00429654 
0.0296322 -0.00733294 0.00268999 0.0319884 -0.00653981 0.00408634 -0.00591896 -0.00343651 0.0040494 
-0.00346812 -0.00280199 0.00272491 -0.0010956 -0.00256047 0.00429817 0.000334393 -0.00471199 0.0030691 
0.00172862 -0.00276323 0.00460833 0.00417724 -0.00359007 0.00339814 0.00861637 -0.00318901 0.00312876 
0.0131959 -0.00344357 0.00371977 0.0158217 -0.00452026 0.00377841 0.0180308 -0.00272376 0.00388731 
0.0212102 -0.00329431 0.00491299 0.0239691 -0.0033115 0.00413175 0.0267391 -0.0026509 0.00410704 
0.0296968 -0.00483588 0.00407835 0.0305359 -0.00256973 0.00253205 -0.00750738 -0.00160649 0.00254023 
0.000643503 -0.000772354 0.00288589 0.00629267 -0.00175096 0.00396001 0.0132247 -0.000221029 0.0047477 
0.0165529 -0.000257337 0.00390859 0.0200008 -0.000965889 0.00280251 0.0286561 -0.000648527 0.00346662 
0.0324257 -0.00117546 0.00416846 0.00405778 -0.0153746 0.0054576 0.00527684 -0.0128367 0.00592451 
0.00809131 -0.0142503 0.00613629 0.0108716 -0.0136305 0.0059605 -0.00294172 -0.0103972 0.00734669 
-0.00036647 -0.0122765 0.00620633 0.00233732 -0.0113597 0.00619104 0.0105637 -0.0109545 0.00687192 
0.0133013 -0.01214 0.00604066 0.0174233 -0.0123592 0.00692486 0.0196839 -0.0108035 0.00614253 
0.0243764 -0.0104275 0.00694431 -0.00520446 -0.00764989 0.00701966 -0.000827085 -0.00951797 0.00563332 
-0.00235114 -0.00761608 0.00710556 0.00164445 -0.00865582 0.0067439 0.00499562 -0.00926851 0.00548688 
0.0089331 -0.00784768 0.00528081 0.011544 -0.00834195 0.00628804 0.0170699 -0.00994381 0.00543407 
0.0150159 -0.00844577 0.00670828 0.0217813 -0.00932287 0.00739251 0.0244505 -0.00757061 0.00698545 
-0.00441598 -0.00533324 0.00555843 0.00161194 -0.00580535 0.00670432 0.00422727 -0.00520894 0.00573824 
0.00650236 -0.00647071 0.00690561 0.00926234 -0.00606065 0.00749445 0.0114787 -0.00551547 0.00580027 
0.021701 -0.00600565 0.00567028 0.0272217 -0.00681526 0.00708147 -0.00840109 -0.00439035 0.00561304 
-0.00604515 -0.00341541 0.00690755 -0.00365598 -0.00258991 0.00556424 -0.00172015 -0.00460835 0.00617778 
0.00320211 -0.00288581 0.00704906 0.00684889 -0.00434514 0.00504161 0.00945031 -0.00349313 0.00585256 
0.012507 -0.00292144 0.00641774 0.0145933 -0.00486645 0.00632017 0.0191609 -0.00367523 0.00687623 
0.0232382 -0.00391062 0.00682742 0.025956 -0.00443367 0.00619151 0.0287467 -0.00439715 0.00673691 
-0.0102204 -0.000475709 0.00680969 -0.00768202 -0.00164304 0.00538901 5.38588e-05 -0.00248949 0.00690906 
0.00656316 -0.000276636 0.00637601 0.0151277 -0.00221581 0.00542209 0.0176749 -0.00130486 0.00633175 
0.0225582 -0.0011913 0.00627936 0.027145 -0.00209146 0.00728698 0.0300656 -0.00229868 0.00532462 
0.00356169 -0.012977 0.00820123 0.00610395 -0.0140698 0.00887581 0.00886818 -0.0147866 0.00884316 
0.0111049 -0.0130086 0.008749 0.00299818 -0.0102255 0.008722 0.00546893 -0.011376 0.0095948 
0.00740687 -0.0118929 0.00757307 0.011801 -0.0102759 0.00934961 0.0166763 -0.0107791 0.00917258 
0.0210839 -0.0119347 0.00834634 -0.00446435 -0.00908425 0.00937636 8.36823e-05 -0.00904928 0.00910938 
0.00610293 -0.00884834 0.00843779 0.00957881 -0.00875195 0.00834802 0.013034 -0.00779391 0.00865138 
0.0157833 -0.00787866 0.00939895 0.0193049 -0.00971453 0.00875083 -0.0150601 -0.00323216 0.00710277 
-0.00962741 -0.00499865 0.00918841 -0.00727217 -0.00582723 0.00780406 -0.00312951 -0.00657639 0.00964656 
-0.000611208 -0.00583758 0.00849881 0.00388204 -0.00720332 0.00774369 0.00645547 -0.00591337 0.0096831 
0.019907 -0.00718325 0.00755709 0.0224238 -0.00614364 0.00842049 -0.00864992 -0.00266469 0.00786269 
-0.00708983 -0.00390444 0.00991 -0.00378415 -0.00401911 0.00854853 -0.00056838 -0.00283016 0.00967037 
0.00357484 -0.0035363 0.00981047 0.00741675 -0.00393461 0.00782208 0.0101474 -0.00358715 0.00862024 
0.0126173 -0.00499239 0.00837101 0.0125027 -0.00262665 0.00995699 0.0165638 -0.00329314 0.00804556 
0.018747 -0.00265274 0.00976577 0.0255855 -0.0037945 0.00896303 -0.0104569 -0.00124827 0.00955187 
-0.00515431 -0.00150518 0.00882711 -0.00245189 -0.00157753 0.00793619 0.00104998 -0.000631928 0.00884246 
0.00549548 -0.00192698 0.00844571 0.0143255 -0.00150869 0.00807182 0.0168792 -0.000633476 0.00900067 
0.0201293 -0.00113926 0.00778239 0.0246091 -0.00120982 0.00826705 0.029858 -0.00218606 0.00817145 
0.00418344 -0.0135496 0.0109283 0.00819985 -0.0106274 0.0100049 0.0143435 -0.0100078 0.0106379 
0.00080702 -0.00938915 0.0118503 0.00243723 -0.00780148 0.0101255 0.00777972 -0.00801639 0.0110822 
0.0108506 -0.00797727 0.010773 0.0131933 -0.00807598 0.0124004 0.0178176 -0.00899178 0.0110712 
0.0217593 -0.00987314 0.010191 -0.000693988 -0.00709575 0.011052 0.00217051 -0.00578922 0.0121329 
0.00921632 -0.00566297 0.0103298 0.0140399 -0.00599569 0.0106362 0.0166175 -0.00650995 0.0117629 
0.0190214 -0.00655091 0.0102014 0.0231094 -0.00745013 0.010865 -0.00310355 -0.00426287 0.0113154 
-0.000339038 -0.00443113 0.0120165 0.00490428 -0.00499476 0.0118756 0.00732688 -0.00362832 0.0111408 
0.0101357 -0.00320504 0.0114511 0.0174054 -0.00378712 0.0120129 0.0153373 -0.00251122 0.0105181 
0.0207547 -0.00481361 0.0116703 0.0234012 -0.00462007 0.0106114 0.00158067 -0.00238225 0.011496 
0.0049824 -0.00215709 0.0118839 0.00744517 -0.000787991 0.0115329 0.0215556 -0.00246397 0.0102596 
-0.0240854 -0.0166239 0.00750018 -0.00236218 -0.0133722 0.013965 0.0122547 -0.00172761 0.012661 
-0.00950327 0.000138692 0.00149388 -0.00757487 0.00204719 0.00238606 -0.00357623 0.00199321 0.0014949 
0.0163962 0.00130346 0.00152781 0.0215169 0.00139253 0.00226204 0.0328092 0.000112748 0.00164867 
0.035574 0.000788393 0.00163124 -0.0101434 0.00291581 0.00148708 -0.00565204 0.00396432 0.00148618 
0.0160458 0.00404608 0.00224851 0.0249215 0.00312897 0.00149604 0.0273431 0.00428102 0.00246818 
0.0336289 0.00277258 0.00230479 -0.0314785 0.00564578 0.00196863 -0.0119867 0.00727465 0.00198402 
-0.00638063 0.00674911 0.001539 0.000321489 0.00602841 0.00151697 0.0113359 0.00689907 0.0014951 
0.0182487 0.00569728 0.00150431 0.0281077 0.00701878 0.00223692 0.0308589 0.00626478 0.00228485 
0.0345066 0.00543199 0.00172662 -0.0287529 0.00647474 0.00181646 -0.00375587 0.00991517 0.00221354 
0.00113918 0.00875929 0.00151987 0.00888949 0.0084761 0.00149444 0.0114069 0.00974752 0.00158379 
0.0264216 0.00996496 0.00157362 0.0331312 0.00793359 0.00187978 -0.0120716 0.0101332 0.00203905 
-0.00989718 0.0119179 0.00149628 -0.00716502 0.0113743 0.0021681 -0.00106743 0.0105696 0.00146586 
0.00349008 0.0102195 0.0022005 0.00619749 0.010967 0.00155149 0.00904529 0.0113488 0.00160542 
0.0139302 0.0110245 0.00190942 0.0191829 0.0118499 0.00196823 0.0240267 0.0114435 0.00199013 
0.0292537 0.0103157 0.0014596 0.0310733 0.012446 0.00187076 -0.0115629 0.0141148 0.00226428 
-0.00885178 0.0145811 0.00149623 0.004164 0.012948 0.00185924 0.00950498 0.0141651 0.00185201 
[...]
POINT_DATA 1000
FIELD FieldData 7
id 1 1000 int
24 10 49 266 25 280 297 3 18 
263 22 12 290 285 53 27 83 29 
302 36 282 268 251 277 295 37 48 
21 9 141 23 17 2 16 50 30 
46 15 39 247 43 104 38 33 7 
19 274 309 191 107 235 6 378 138 
164 248 41 254 1 252 52 262 504 
298 256 535 301 520 56 296 272 270 
58 306 258 13 45 294 264 260 32 
40 51 259 253 28 287 278 31 273 
4 281 305 34 65 304 205 54 47 
303 308 44 8 5 42 289 261 527 
292 279 291 11 35 434 67 14 554 
689 26 267 551 558 761 509 531 555 
544 543 501 533 549 524 525 508 548 
552 526 257 518 521 503 293 534 283 
528 532 286 284 767 507 506 276 255 
510 265 275 300 269 556 307 530 788 
804 529 536 158 299 288 547 807 511 
515 810 773 766 769 787 789 774 782 
751 768 765 776 755 516 797 546 20 
784 502 757 522 540 542 538 512 519 
794 523 505 764 545 539 517 557 513 
790 752 792 806 541 648 537 271 550 
514 809 801 775 805 802 781 796 808 
777 795 786 803 778 798 553 758 791 
800 763 759 753 762 783 793 780 754 
772 785 779 756 799 770 57 216 760 
193 339 102 55 186 136 160 357 199 
161 131 242 218 124 363 89 429 112 
331 384 425 234 79 237 69 63 206 
130 433 455 227 229 118 243 123 116 
211 238 157 149 169 223 175 204 84 
62 155 203 165 80 178 194 183 472 
154 249 179 222 90 127 310 120 87 
332 208 117 226 86 182 110 64 430 
105 159 407 404 75 231 399 174 484 
740 184 77 60 103 195 367 98 236 
360 151 121 177 143 239 156 487 431 
392 496 190 139 749 401 111 114 233 
91 416 397 323 113 389 482 72 66 
685 393 214 499 209 68 344 413 202 
330 328 380 724 96 232 359 423 94 
212 314 445 119 460 419 313 101 85 
122 73 213 189 333 147 99 92 317 
197 128 210 246 145 220 241 180 352 
448 142 185 78 88 198 150 61 100 
408 166 428 415 490 93 311 163 240 
462 492 570 346 427 471 387 146 59 
221 115 201 385 465 483 394 391 82 
126 245 196 109 106 412 495 379 347 
435 140 436 167 97 364 376 366 315 
464 491 188 341 451 437 422 463 418 
402 390 447 349 170 162 225 176 439 
224 153 334 76 388 219 168 81 148 
459 125 603 329 640 565 370 320 95 
134 192 207 200 679 709 457 369 675 
132 477 383 596 688 698 449 486 468 
382 129 655 642 632 678 732 365 673 
900 666 629 452 450 454 338 362 730 
680 563 335 398 727 912 438 173 172 
135 355 250 358 625 475 626 707 498 
152 70 466 470 396 456 561 343 476 
340 350 692 473 215 405 181 342 622 
598 494 74 480 137 244 368 373 461 
646 411 377 714 337 420 348 230 371 
386 674 409 406 414 481 474 594 395 
336 444 741 467 319 575 318 400 722 
620 322 728 590 560 171 581 702 479 
485 750 618 432 356 668 500 615 592 
381 616 71 564 623 442 879 898 228 
426 372 638 458 922 326 353 735 325 
571 567 613 577 663 945 652 441 573 
572 876 974 601 695 469 927 981 992 
967 862 703 417 440 747 645 915 701 
566 847 890 936 744 579 670 569 593 
738 930 589 979 316 656 903 611 591 
726 664 607 453 493 619 718 653 410 
658 609 446 870 606 354 217 108 403 
489 682 654 745 650 715 562 361 421 
497 488 617 599 610 624 700 424 710 
723 568 634 748 321 955 614 327 312 
578 828 660 733 739 585 588 743 996 
933 375 672 691 697 816 586 600 587 
621 595 665 597 576 643 651 644 604 
559 818 868 712 716 602 628 639 662 
720 988 734 608 999 708 925 746 989 
631 686 681 848 690 635 811 696 641 
729 693 699 860 853 906 919 612 574 
932 909 704 877 929 958 771 959 896 
649 717 961 886 921 984 971 835 647 
684 633 711 659 731 817 869 840 837 
942 964 882 814 627 843 705 582 935 
871 895 856 855 669 637 924 812 917 
953 657 859 683 584 374 324 671 345 
736 630 914 580 842 954 823 867 719 
742 908 815 824 897 902 583 976 957 
977 713 938 949 478 881 963 836 721 
948 968 826 905 844 694 676 636 667 
834 737 970 857 918 838 725 845 993 
852 889 893 880 944 822 947 987 865 
965 875 687 885 854 829 819 661 940 
952 980 986 827 830 858 978 874 878 
962 821 913 133 861 946 850 939 928 
351 907 841 997 825 916 941 833 901 
926 891 931 911 937 985 990 975 849 
998 910 813 863 943 888 873 883 677 
866 951 872 969 983 920 706 605 950 
851 846 934 894 1000 960 144 884 982 
995 956 966 904 973 923 994 831 899 
972 887 820 832 187 991 892 839 443 
864 
type 1 1000 int
1 1 1 1 1 1 1 1 1 
1 1 1 1 1 1 1 1 1 
1 1 1 1 1 1 1 1 1 
1 1 1 1 1 1 1 1 1 
1 1 1 1 1 1 1 1 1 
1 1 1 1 1 1 1 1 1 
1 1 1 1 1 1 1 1 1 
1 1 1 1 1 1 1 1 1 
1 1 1 1 1 1 1 1 1 
1 1 1 1 1 1 1 1 1 
1 1 1 1 1 1 1 1 1 
1 1 1 1 1 1 1 1 1 
1 1 1 1 1 1 1 1 1 
1 1 1 1 1 1 1 1 1 
1 1 1 1 1 1 1 1 1 
1 1 1 1 1 1 1 1 1 
1 1 1 1 1 1 1 1 1 
1 1 1 1 1 1 1 1 1 
1 1 1 1 1 1 1 1 1 
1 1 1 1 1 1 1 1 1 
1 1 1 1 1 1 1 1 1 
1 1 1 1 1 1 1 1 1 
1 1 1 1 1 1 1 1 1 
1 1 1 1 1 1 1 1 1 
1 1 1 1 1 1 1 1 1 
1 1 1 1 1 1 1 1 1 
1 1 1 1 1 1 1 1 1 
1 1 1 1 1 1 1 1 1 
1 1 1 1 1 1 1 1 1 
1 1 1 1 1 1 1 1 1 
1 1 1 1 1 1 1 1 1 
1 1 1 1 1 1 1 1 1 
1 1 1 1 1 1 1 1 1 
1 1 1 1 1 1 1 1 1 
1 1 1 1 1 1 1 1 1 
1 1 1 1 1 1 1 1 1 
1 1 1 1 1 1 1 1 1 
1 1 1 1 1 1 1 1 1 
1 1 1 1 1 1 1 1 1 
1 1 1 1 1 1 1 1 1 
1 1 1 1 1 1 1 1 1 
1 1 1 1 1 1 1 1 1 
1 1 1 1 1 1 1 1 1 
1 1 1 1 1 1 1 1 1 
1 1 1 1 1 1 1 1 1 
1 1 1 1 1 1 1 1 1 
1 1 1 1 1 1 1 1 1 
1 1 1 1 1 1 1 1 1 
1 1 1 1 1 1 1 1 1 
1 1 1 1 1 1 1 1 1 
1 1 1 1 1 1 1 1 1 
1 1 1 1 1 1 1 1 1 
1 1 1 1 1 1 1 1 1 
1 1 1 1 1 1 1 1 1 
1 1 1 1 1 1 1 1 1 
1 1 1 1 1 1 1 1 1 
1 1 1 1 1 1 1 1 1 
1 1 1 1 1 1 1 1 1 
1 1 1 1 1 1 1 1 1 
1 1 1 1 1 1 1 1 1 
1 1 1 1 1 1 1 1 1 
1 1 1 1 1 1 1 1 1 
1 1 1 1 1 1 1 1 1 
1 1 1 1 1 1 1 1 1 
1 1 1 1 1 1 1 1 1 
1 1 1 1 1 1 1 1 1 
1 1 1 1 1 1 1 1 1 
1 1 1 1 1 1 1 1 1 
1 1 1 1 1 1 1 1 1 
1 1 1 1 1 1 1 1 1 
1 1 1 1 1 1 1 1 1 
1 1 1 1 1 1 1 1 1 
1 1 1 1 1 1 1 1 1 
1 1 1 1 1 1 1 1 1 
1 1 1 1 1 1 1 1 1 
1 1 1 1 1 1 1 1 1 
1 1 1 1 1 1 1 1 1 
1 1 1 1 1 1 1 1 1 
1 1 1 1 1 1 1 1 1 
1 1 1 1 1 1 1 1 1 
1 1 1 1 1 1 1 1 1 
1 1 1 1 1 1 1 1 1 
1 1 1 1 1 1 1 1 1 
1 1 1 1 1 1 1 1 1 
1 1 1 1 1 1 1 1 1 
1 1 1 1 1 1 1 1 1 
1 1 1 1 1 1 1 1 1 
1 1 1 1 1 1 1 1 1 
1 1 1 1 1 1 1 1 1 
1 1 1 1 1 1 1 1 1 
1 1 1 1 1 1 1 1 1 
1 1 1 1 1 1 1 1 1 
1 1 1 1 1 1 1 1 1 
1 1 1 1 1 1 1 1 1 
1 1 1 1 1 1 1 1 1 
1 1 1 1 1 1 1 1 1 
1 1 1 1 1 1 1 1 1 
1 1 1 1 1 1 1 1 1 
1 1 1 1 1 1 1 1 1 
1 1 1 1 1 1 1 1 1 
1 1 1 1 1 1 1 1 1 
1 1 1 1 1 1 1 1 1 
1 1 1 1 1 1 1 1 1 
1 1 1 1 1 1 1 1 1 
1 1 1 1 1 1 1 1 1 
1 1 1 1 1 1 1 1 1 
1 1 1 1 1 1 1 1 1 
1 1 1 1 1 1 1 1 1 
1 1 1 1 1 1 1 1 1 
1 1 1 1 1 1 1 1 1 
1 1 1 1 1 1 1 1 1 
1 
i 3 1000 int
0 0 0 0 0 0 0 0 0 
0 0 0 0 0 0 0 0 0 
0 0 0 0 0 0 0 0 0 
0 0 0 0 0 0 0 0 0 
0 0 0 0 0 0 0 0 0 
0 0 0 0 0 0 0 0 0 
0 0 0 0 0 0 0 0 0 
0 0 0 0 0 0 0 0 0 
0 0 0 0 0 0 0 0 0 
0 0 0 0 0 0 0 0 0 
0 0 0 0 0 0 0 0 0 
0 0 0 0 0 0 0 0 0 
0 0 0 0 0 0 0 0 0 
0 0 0 0 0 0 0 0 0 
0 0 0 0 0 0 0 0 0 
0 0 0 0 0 0 0 0 0 
0 0 0 0 0 0 0 0 0 
0 0 0 0 0 0 0 0 0 
0 0 0 0 0 0 0 0 0 
0 0 0 0 0 0 0 0 0 
0 0 0 0 0 0 0 0 0 
0 0 0 0 0 0 0 0 0 
0 0 0 0 0 0 0 0 0 
0 0 0 0 0 0 0 0 0 
0 0 0 0 0 0 0 0 0 
0 0 0 0 0 0 0 0 0 
0 0 0 0 0 0 0 0 0 
0 0 0 0 0 0 0 0 0 
0 0 0 0 0 0 0 0 0 
0 0 0 0 0 0 0 0 0 
0 0 0 0 0 0 0 0 0 
0 0 0 0 0 0 0 0 0 
0 0 0 0 0 0 0 0 0 
0 0 0 0 0 0 0 0 0 
0 0 0 0 0 0 0 0 0 
0 0 0 0 0 0 0 0 0 
0 0 0 0 0 0 0 0 0 
0 0 0 0 0 0 0 0 0 
0 0 0 0 0 0 0 0 0 
0 0 0 0 0 0 0 0 0 
0 0 0 0 0 0 0 0 0 
0 0 0 0 0 0 0 0 0 
0 0 0 0 0 0 0 0 0 
0 0 0 0 0 0 0 0 0 
0 0 0 0 0 0 0 0 0 
0 0 0 0 0 0 0 0 0 
0 0 0 0 0 0 0 0 0 
0 0 0 0 0 0 0 0 0 
0 0 0 0 0 0 0 0 0 
0 0 0 0 0 0 0 0 0 
0 0 0 0 0 0 0 0 0 
0 0 0 0 0 0 0 0 0 
0 0 0 0 0 0 0 0 0 
0 0 0 0 0 0 0 0 0 
0 0 0 0 0 0 0 0 0 
0 0 0 0 0 0 0 0 0 
0 0 0 0 0 0 0 0 0 
0 0 0 0 0 0 0 0 0 
0 0 0 0 0 0 0 0 0 
0 0 0 0 0 0 0 0 0 
0 0 0 0 0 0 0 0 0 
0 0 0 0 0 0 0 0 0 
0 0 0 0 0 0 0 0 0 
0 0 0 0 0 0 0 0 0 
0 0 0 0 0 0 0 0 0 
0 0 0 0 0 0 0 0 0 
0 0 0 0 0 0 0 0 0 
0 0 0 0 0 0 0 0 0 
0 0 0 0 0 0 0 0 0 
0 0 0 0 0 0 0 0 0 
0 0 0 0 0 0 0 0 0 
0 0 0 0 0 0 0 0 0 
0 0 0 0 0 0 0 0 0 
0 0 0 0 0 0 0 0 0 
0 0 0 0 0 0 0 0 0 
0 0 0 0 0 0 0 0 0 
0 0 0 0 0 0 0 0 0 
0 0 0 0 0 0 0 0 0 
0 0 0 0 0 0 0 0 0 
0 0 0 0 0 0 0 0 0 
0 0 0 0 0 0 0 0 0 
0 0 0 0 0 0 0 0 0 
0 0 0 0 0 0 0 0 0 
0 0 0 0 0 0 0 0 0 
0 0 0 0 0 0 0 0 0 
0 0 0 0 0 0 0 0 0 
0 0 0 0 0 0 0 0 0 
0 0 0 0 0 0 0 0 0 
0 0 0 0 0 0 0 0 0 
0 0 0 0 0 0 0 0 0 
0 0 0 0 0 0 0 0 0 
0 0 0 0 0 0 0 0 0 
0 0 0 0 0 0 0 0 0 
0 0 0 0 0 0 0 0 0 
0 0 0 0 0 0 0 0 0 
0 0 0 0 0 0 0 0 0 
0 0 0 0 0 0 0 0 0 
0 0 0 0 0 0 0 0 0 
0 0 0 0 0 0 0 0 0 
0 0 0 0 0 0 0 0 0 
0 0 0 0 0 0 0 0 0 
0 0 0 0 0 0 0 0 0 
0 0 0 0 0 0 0 0 0 
0 0 0 0 0 0 0 0 0 
0 0 0 0 0 0 0 0 0 
0 0 0 0 0 0 0 0 0 
0 0 0 0 0 0 0 0 0 
0 0 0 0 0 0 0 0 0 
0 0 0 0 0 0 0 0 0 
0 0 0 0 0 0 0 0 0 
0 0 0 0 0 0 0 0 0 
0 0 0 0 0 0 0 0 0 
0 0 0 0 0 0 0 0 0 
0 0 0 0 0 0 0 0 0 
0 0 0 0 0 0 0 0 0 
0 0 0 0 0 0 0 0 0 
0 0 0 0 0 0 0 0 0 
0 0 0 0 0 0 0 0 0 
0 0 0 0 0 0 0 0 0 
0 0 0 0 0 0 0 0 0 
0 0 0 0 0 0 0 0 0 
0 0 0 0 0 0 0 0 0 
0 0 0 0 0 0 0 0 0 
0 0 0 0 0 0 0 0 0 
0 0 0 0 0 0 0 0 0 
0 0 0 0 0 0 0 0 0 
0 0 0 0 0 0 0 0 0 
0 0 0 0 0 0 0 0 0 
0 0 0 0 0 0 0 0 0 
0 0 0 0 0 0 0 0 0 
0 0 0 0 0 0 0 0 0 
0 0 0 0 0 0 0 0 0 
0 0 0 0 0 0 0 0 0 
0 0 0 0 0 0 0 0 0 
0 0 0 0 0 0 0 0 0 
0 0 0 0 0 0 0 0 0 
0 0 0 0 0 0 0 0 0 
0 0 0 0 0 0 0 0 0 
0 0 0 0 0 0 0 0 0 
0 0 0 0 0 0 0 0 0 
0 0 0 0 0 0 0 0 0 
0 0 0 0 0 0 0 0 0 
0 0 0 0 0 0 0 0 0 
0 0 0 0 0 0 0 0 0 
0 0 0 0 0 0 0 0 0 
0 0 0 0 0 0 0 0 0 
0 0 0 0 0 0 0 0 0 
0 0 0 0 0 0 0 0 0 
0 0 0 0 0 0 0 0 0 
0 0 0 0 0 0 0 0 0 
0 0 0 0 0 0 0 0 0 
0 0 0 0 0 0 0 0 0 
0 0 0 0 0 0 0 0 0 
0 0 0 0 0 0 0 0 0 
0 0 0 0 0 0 0 0 0 
0 0 0 0 0 0 0 0 0 
0 0 0 0 0 0 0 0 0 
0 0 0 0 0 0 0 0 0 
0 0 0 0 0 0 0 0 0 
0 0 0 0 0 0 0 0 0 
0 0 0 0 0 0 0 0 0 
0 0 0 0 0 0 0 0 0 
0 0 0 0 0 0 0 0 0 
0 0 0 0 0 0 0 0 0 
0 0 0 0 0 0 0 0 0 
0 0 0 0 0 0 0 0 0 
0 0 0 0 0 0 0 0 0 
0 0 0 0 0 0 0 0 0 
0 0 0 0 0 0 0 0 0 
0 0 0 0 0 0 0 0 0 
0 0 0 0 0 0 0 0 0 
0 0 0 0 0 0 0 0 0 
0 0 0 0 0 0 0 0 0 
0 0 0 0 0 0 0 0 0 
0 0 0 0 0 0 0 0 0 
0 0 0 0 0 0 0 0 0 
0 0 0 0 0 0 0 0 0 
0 0 0 0 0 0 0 0 0 
0 0 0 0 0 0 0 0 0 
0 0 0 0 0 0 0 0 0 
0 0 0 0 0 0 0 0 0 
0 0 0 0 0 0 0 0 0 
0 0 0 0 0 0 0 0 0 
0 0 0 0 0 0 0 0 0 
0 0 0 0 0 0 0 0 0 
0 0 0 0 0 0 0 0 0 
0 0 0 0 0 0 0 0 0 
0 0 0 0 0 0 0 0 0 
0 0 0 0 0 0 0 0 0 
0 0 0 0 0 0 0 0 0 
0 0 0 0 0 0 0 0 0 
0 0 0 0 0 0 0 0 0 
0 0 0 0 0 0 0 0 0 
0 0 0 0 0 0 0 0 0 
0 0 0 0 0 0 0 0 0 
0 0 0 0 0 0 0 0 0 
0 0 0 0 0 0 0 0 0 
0 0 0 0 0 0 0 0 0 
0 0 0 0 0 0 0 0 0 
0 0 0 0 0 0 0 0 0 
0 0 0 0 0 0 0 0 0 
0 0 0 0 0 0 0 0 0 
0 0 0 0 0 0 0 0 0 
0 0 0 0 0 0 0 0 0 
0 0 0 0 0 0 0 0 0 
0 0 0 0 0 0 0 0 0 
0 0 0 0 0 0 0 0 0 
0 0 0 0 0 0 0 0 0 
0 0 0 0 0 0 0 0 0 
0 0 0 0 0 0 0 0 0 
0 0 0 0 0 0 0 0 0 
0 0 0 0 0 0 0 0 0 
0 0 0 0 0 0 0 0 0 
0 0 0 0 0 0 0 0 0 
0 0 0 0 0 0 0 0 0 
0 0 0 0 0 0 0 0 0 
0 0 0 0 0 0 0 0 0 
0 0 0 0 0 0 0 0 0 
0 0 0 0 0 0 0 0 0 
0 0 0 0 0 0 0 0 0 
0 0 0 0 0 0 0 0 0 
0 0 0 0 0 0 0 0 0 
0 0 0 0 0 0 0 0 0 
0 0 0 0 0 0 0 0 0 
0 0 0 0 0 0 0 0 0 
0 0 0 0 0 0 0 0 0 
0 0 0 0 0 0 0 0 0 
0 0 0 0 0 0 0 0 0 
0 0 0 0 0 0 0 0 0 
0 0 0 0 0 0 0 0 0 
0 0 0 0 0 0 0 0 0 
0 0 0 0 0 0 0 0 0 
0 0 0 0 0 0 0 0 0 
0 0 0 0 0 0 0 0 0 
0 0 0 0 0 0 0 0 0 
0 0 0 0 0 0 0 0 0 
0 0 0 0 0 0 0 0 0 
0 0 0 0 0 0 0 0 0 
0 0 0 0 0 0 0 0 0 
0 0 0 0 0 0 0 0 0 
0 0 0 0 0 0 0 0 0 
0 0 0 0 0 0 0 0 0 
0 0 0 0 0 0 0 0 0 
0 0 0 0 0 0 0 0 0 
0 0 0 0 0 0 0 0 0 
0 0 0 0 0 0 0 0 0 
0 0 0 0 0 0 0 0 0 
0 0 0 0 0 0 0 0 0 
0 0 0 0 0 0 0 0 0 
0 0 0 0 0 0 0 0 0 
0 0 0 0 0 0 0 0 0 
0 0 0 0 0 0 0 0 0 
0 0 0 0 0 0 0 0 0 
0 0 0 0 0 0 0 0 0 
0 0 0 0 0 0 0 0 0 
0 0 0 0 0 0 0 0 0 
0 0 0 0 0 0 0 0 0 
0 0 0 0 0 0 0 0 0 
0 0 0 0 0 0 0 0 0 
0 0 0 0 0 0 0 0 0 
0 0 0 0 0 0 0 0 0 
0 0 0 0 0 0 0 0 0 
0 0 0 0 0 0 0 0 0 
0 0 0 0 0 0 0 0 0 
0 0 0 0 0 0 0 0 0 
0 0 0 0 0 0 0 0 0 
0 0 0 0 0 0 0 0 0 
0 0 0 0 0 0 0 0 0 
0 0 0 0 0 0 0 0 0 
0 0 0 0 0 0 0 0 0 
0 0 0 0 0 0 0 0 0 
0 0 0 0 0 0 0 0 0 
0 0 0 0 0 0 0 0 0 
0 0 0 0 0 0 0 0 0 
0 0 0 0 0 0 0 0 0 
0 0 0 0 0 0 0 0 0 
0 0 0 0 0 0 0 0 0 
0 0 0 0 0 0 0 0 0 
0 0 0 0 0 0 0 0 0 
0 0 0 0 0 0 0 0 0 
0 0 0 0 0 0 0 0 0 
0 0 0 0 0 0 0 0 0 
0 0 0 0 0 0 0 0 0 
0 0 0 0 0 0 0 0 0 
0 0 0 0 0 0 0 0 0 
0 0 0 0 0 0 0 0 0 
0 0 0 0 0 0 0 0 0 
0 0 0 0 0 0 0 0 0 
0 0 0 0 0 0 0 0 0 
0 0 0 0 0 0 0 0 0 
0 0 0 0 0 0 0 0 0 
0 0 0 0 0 0 0 0 0 
0 0 0 0 0 0 0 0 0 
0 0 0 0 0 0 0 0 0 
0 0 0 0 0 0 0 0 0 
0 0 0 0 0 0 0 0 0 
0 0 0 0 0 0 0 0 0 
0 0 0 0 0 0 0 0 0 
0 0 0 0 0 0 0 0 0 
0 0 0 0 0 0 0 0 0 
0 0 0 0 0 0 0 0 0 
0 0 0 0 0 0 0 0 0 
0 0 0 0 0 0 0 0 0 
0 0 0 0 0 0 0 0 0 
0 0 0 0 0 0 0 0 0 
0 0 0 0 0 0 0 0 0 
0 0 0 0 0 0 0 0 0 
0 0 0 0 0 0 0 0 0 
0 0 0 0 0 0 0 0 0 
0 0 0 0 0 0 0 0 0 
0 0 0 0 0 0 0 0 0 
0 0 0 0 0 0 0 0 0 
0 0 0 0 0 0 0 0 0 
0 0 0 0 0 0 0 0 0 
0 0 0 0 0 0 0 0 0 
0 0 0 0 0 0 0 0 0 
0 0 0 0 0 0 0 0 0 
0 0 0 0 0 0 0 0 0 
0 0 0 0 0 0 0 0 0 
0 0 0 0 0 0 0 0 0 
0 0 0 0 0 0 0 0 0 
0 0 0 0 0 0 0 0 0 
0 0 0 0 0 0 0 0 0 
0 0 0 0 0 0 0 0 0 
0 0 0 0 0 0 0 0 0 
0 0 0 0 0 0 0 0 0 
0 0 0 0 0 0 0 0 0 
0 0 0 0 0 0 0 0 0 
0 0 0 0 0 0 0 0 0 
0 0 0 0 0 0 0 0 0 
0 0 0 0 0 0 0 0 0 
0 0 0 0 0 0 0 0 0 
0 0 0 0 0 0 0 0 0 
0 0 0 
v 3 1000 double
-0.093025018757 0.43094901961 0.010163625956 -0.20953605962 0.16955659973 -0.0088874581023 0.0095273367392 0.0044634234237 -0.0076888844415 
0.0027443640115 -0.0017339100535 -0.0041703676323 0.0040078056052 0.0023738943745 -0.0034192742141 0.004840723135 0.0082385438277 -0.0034218582055 
0.0030689039367 0.0048185418085 0.003996894302 0.0059266829127 0.0024799977369 0.0013650743171 -0.047233284378 0.0044585486791 -0.0043578973588 
6.0330135398e-05 -0.0013371425699 -0.00079882308741 0.0022448943088 -0.0027307383124 0.0026926918123 0.0034834776428 -0.0039157563272 0.0087676683624 
0.0047445295639 -0.0017590524841 0.0038925433886 0.0063720764407 0.0015094784609 0.0052516104935 0.0054694683043 0.0010512564638 0.0034438805683 
0.0037796570487 0.0016282439627 0.0029142015565 0.17225402613 0.063364967205 -0.064020712372 0.19412738057 0.038680352181 0.036289301329 
-0.0034758910241 0.001087024718 0.003371041532 -0.0052763216089 0.0021872001769 -0.0013364005651 -0.0033923478365 -0.0014396761401 0.0021604971574 
0.0028976914812 -0.0021445583153 0.0036755015188 0.0025653382075 -0.0049438415888 0.017055289109 0.0021413860659 -0.003384906433 0.012171911431 
0.004084772635 -0.00055373545908 -0.0010239764373 0.0052346165271 0.00196308641 -0.000372030038 0.0050449558724 0.00072576896235 0.0021243232152 
0.00058474431564 0.0032556957667 0.0014392436837 -0.0032269852864 -0.0012287718068 0.0019967158201 0.00028776387273 -0.0067594747657 0.0050670411246 
0.19947860028 0.055472812214 -0.013761693537 -0.0038763932171 0.0024487557363 0.0069776695832 -0.0042104310271 -0.00087120325932 0.0054772481757 
0.0032026972587 -0.0067329264049 0.013684036799 0.0030724762167 0.00040655968676 0.0024455554648 0.0034083250782 0.00051434163978 0.0020349190807 
0.0048984166759 0.0011368324226 0.00074074190177 0.0030947878196 0.0042573369188 0.0016645654097 0.0020010641581 0.004278378102 0.003936863973 
0.0048389466259 -0.0032183988296 0.010431037741 -0.0013127788734 -0.0011331382199 0.0037194630393 0.0035106692279 -0.0049979559459 0.00308693094 
0.0044713057785 0.0021066138413 0.0042602872253 0.0023383308805 0.00061329063996 0.001388571199 0.0030464048939 0.0017661713088 0.0033955134071 
0.0040317498651 0.0048002222501 0.0042821554473 0.0052888846654 0.0061931824563 0.0080192551071 0.0062396689798 0.0025870481917 0.012805362616 
-0.0020759135033 -0.002283077887 0.0032312755094 -0.0019127915179 -0.00092784527102 0.0017983625174 0.0047527950848 -0.0018622853622 0.0052511266259 
0.005317956838 -0.0053783500485 -1.6080230235e-05 0.0062463257609 0.0093885538831 -0.0023774994413 0.001792953815 0.00047863505562 0.0020687420791 
-7.3714394718e-05 0.0034302887353 0.0063739222841 -0.027050628118 0.0043341656881 0.00036736232672 0.12904172188 0.16546086146 -0.1459813479 
0.0072951384077 -0.00093456340244 -0.0068932915942 0.010681965645 -9.4007598772e-05 -0.010318910645 0.0024544588773 -0.0052275229199 -0.0038056592398 
0.0054449486591 0.0017350890633 -0.0046509271526 0.0033464484966 0.0069779539044 -0.0017820465384 0.0069927281437 0.015201630308 0.01160966253 
-0.0017514098552 -0.0026889076485 -0.00062638347588 -0.00084514874219 -0.003847374347 -0.00071593514287 -0.00015935779378 0.0064359854352 0.0083312674001 
0.005427052324 0.0067967344715 0.0040058535141 0.0049030507092 0.0031376986778 0.0035374664328 0.0055310725118 0.0015081572817 0.0017034853933 
0.0045845161187 0.0022751681864 0.0028007895358 0.0058638444069 0.0011306901729 0.0042205787398 -0.0057480506046 -0.00069988427751 0.006018481524 
-0.0042550154709 -0.0012271739172 0.0056528782607 -0.00061126996 -0.0042404831843 0.0012187240659 0.0053361212501 -0.0018533030618 0.0026132384676 
0.0046633910867 0.0011016463327 0.0011897503773 0.0051264497487 0.0019557553289 0.0010406985343 0.0045346379641 0.0014552047981 0.0020746564128 
0.0012023520764 0.0016465548469 0.0021542248927 -0.00021604817879 0.00089993077068 0.00086378955482 -0.007028774032 -0.0018467669389 0.010067920093 
0.16985928861 0.048943995081 -0.043091726247 0.14249478856 0.016888902341 -0.020214297329 -0.0048483445532 0.0022999233312 0.0058578417377 
-0.0021519755446 -0.0022371807419 0.0053696902288 -0.0025736636523 -0.00052928181596 0.0071306826834 0.00084332233562 -0.0029512938323 0.004526900515 
-0.0025371738667 -0.0050152821571 0.014127448546 0.003817039619 -0.0011732770942 0.0024364186537 0.0028400932533 -0.0002512657113 0.0010537222783 
0.0036032983731 0.0025809675271 -3.8188318844e-05 0.00092267490037 0.00025900914566 0.0028467399577 0.0020095834672 -0.0033303350128 0.0060755271362 
0.00036901468448 -0.0037277166233 0.0018733607498 0.0006781241809 -0.011935462784 0.0071519574216 -0.0020171815323 0.00068637413441 0.0070374615567 
-0.0020071181588 -0.0011264859365 0.0059721587444 -0.00098347969961 -0.00032055169942 0.0049220132325 -0.0012481513875 -0.0018586238325 0.0052326072555 
0.00023766641053 0.00062039172745 0.0042266025444 0.0026622151603 -0.0022358752527 0.0043188316999 0.0039934327986 -0.0023042346388 0.0011375908566 
0.0017428855437 -0.0016470361029 0.0029651906481 0.0030823504063 -0.00012146335639 0.0014596699635 0.0018625509963 -0.00069185042397 0.0019678357728 
0.0013183043585 0.00093296151894 0.004504244563 0.0031483547958 0.0040649434181 0.0057290592413 0.0068354712305 -0.0018953358768 0.013040074687 
0.0044979656037 -0.0070019318177 0.011133788421 0.0086311545695 -0.0024911208934 0.017810337558 8.3783128574e-05 -0.00240546592 0.002209713025 
-0.0016036501173 -0.00078795922857 0.0021346619718 0.0077341067066 -0.0032614144891 0.0020901130757 0.0041191399081 0.0027892115635 -0.00029204667738 
0.0035128536855 -0.00050876192893 0.0026936126559 0.0008917148067 -0.0001753035489 0.0074152265768 0.0079896436774 -0.0046352291055 0.020162658995 
0.0096761511504 0.0016182239274 0.0092826376244 0.006535759155 -0.0050735231863 -0.0067153981844 0.0015301647522 -0.002489204599 -0.0025969666324 
0.0043381944452 0.0030888346033 -0.0030829352451 0.0023653742573 0.0019428840181 -0.0021581641584 -0.0070877043702 0.00010222784943 0.0067623551139 
-0.0041945991251 -0.0066543375712 -0.004774974353 -0.0020220444504 -0.0057042647385 -0.00033680396985 0.0035931759346 -0.0016568864158 0.0020094436706 
-0.0055732140333 0.013201888892 0.0073272752482 0.0086586412786 0.0029411968939 0.0047862583505 0.0038434603331 0.0027209469614 0.0021801080303 
0.004976563845 -0.0011288727918 0.00048959943354 -0.0068867089767 0.00073597546473 0.010818609892 -0.0031836989708 -0.0017651898746 0.0042379079412 
-0.0051241387826 -0.00059488242995 0.0080685849263 -0.00047563536368 -0.0039304415325 0.001332779491 -0.0091208546277 -0.0051524083817 0.011606761837 
0.00062688896963 -0.0045889162708 0.0093535007354 0.004263084864 -0.0014408347621 0.0029814355083 0.0055117748858 0.0033844543359 0.0023736739439 
0.0044527117773 0.0017608964605 0.0046202167833 0.0055851874087 -0.00027278052505 0.002564546449 -0.0016093952268 -0.0023145589038 0.0049274295386 
-0.0032846605914 2.1713066313e-05 0.0083729699529 -0.000544999977 -0.0044246003097 0.0049998972398 0.0010023094591 0.00045894029857 0.0063989022687 
0.0023972289927 0.002094282441 0.0091237652144 0.0046413545119 -0.0019746187788 0.0051309741474 0.0056283932275 -0.0035664629416 0.0032761094033 
0.0026616640158 0.00095519766156 -0.00053944266967 -0.0035305804223 -0.0030488393948 0.0058324744765 -0.0044686764559 0.0041356980304 0.0050789772431 