# vtk DataFile Version 4.1
Generated by LIGGGHTS
ASCII
DATASET POLYDATA
POINTS 500 float
0.0136075 -0.0131988 0.0410259 0.0031541 -0.010225 0.0407899 -0.00444061 -0.00849451 0.0404919 
0.00613848 -0.00768589 0.0407748 0.0189126 -0.00926293 0.0405525 -0.0013582 -0.00669164 0.04101 
0.00945297 -0.00566082 0.0410845 0.0257257 -0.00673546 0.0400816 -0.00308905 -0.00380005 0.0403342 
0.0116788 -0.00306992 0.0411921 0.0173189 -0.00472824 0.0402288 -0.00663779 -0.00190889 0.0401536 
0.00743962 -0.00219621 0.0408199 0.0218176 -0.00223372 0.0405262 0.00907973 -0.012607 0.041628 
0.0146819 -0.0110611 0.0429086 0.0177222 -0.0116127 0.0426623 0.0205991 -0.0108807 0.0438534 
0.00833056 -0.00999546 0.042934 0.0132038 -0.0084453 0.041951 0.0223219 -0.00913161 0.0420093 
-0.00614196 -0.00689141 0.0427244 0.0195975 -0.00579634 0.0426571 -0.00208666 -0.00463601 0.0438069 
0.00070096 -0.00418992 0.0420487 0.00393469 -0.0043987 0.0427762 0.01089 -0.00491448 0.0436734 
0.0158318 -0.00304299 0.0430465 0.0242298 -0.00424082 0.0417467 -0.009827 -0.00219253 0.0421109 
0.00592537 -0.00219775 0.0436556 0.0283209 -0.00187659 0.0421315 0.0114418 -0.0125728 0.0445148 
0.00224067 -0.0108057 0.0447881 0.00539417 -0.0105415 0.0445612 0.0149613 -0.0119988 0.0459406 
-0.000963028 -0.00918224 0.0447967 0.00895241 -0.00957662 0.0459393 0.0164703 -0.00858327 0.0461414 
0.0239434 -0.00846644 0.0450786 0.00158104 -0.00674479 0.0456549 0.011193 -0.00744003 0.0457309 
0.0149386 -0.00644234 0.0445097 0.0236584 -0.00525976 0.0448814 -0.00456744 -0.00298205 0.0458688 
0.0103342 -0.00253398 0.0463991 0.0132701 -0.00445464 0.0460903 0.0207465 -0.00256093 0.0443453 
0.0256047 -0.00198517 0.045585 0.00827048 -0.0128912 0.0471228 -0.00372367 -0.00863405 0.0471404 
0.0194273 -0.00907137 0.0471901 0.00751332 -0.00557911 0.046777 -0.00154496 -0.00334521 0.0468562 
0.00350341 -0.00396545 0.0472659 0.0171913 -0.00339789 0.0466134 -0.00831872 -0.00234028 0.0467769 
0.00112688 -0.00164233 0.0470388 0.00475761 -0.0101331 0.0517978 0.0125665 -0.0118252 0.052026 
0.0204447 -0.00931293 0.0513271 -0.00567764 -0.00574567 0.0513187 0.0262047 -0.00694784 0.0513528 
0.0126515 -0.00323688 0.0514716 0.0243015 -0.00308154 0.0520182 0.00401553 -0.00180714 0.0512551 
0.00811285 -0.0126997 0.0532902 0.00246058 -0.011993 0.0526413 0.0174812 -0.0114592 0.0537436 
0.000241667 -0.00999196 0.0531125 0.00738483 -0.00847299 0.0525836 0.0113803 -0.00766339 0.053974 
0.0146435 -0.00952342 0.0529566 0.0236103 -0.00806766 0.0542319 -0.000168241 -0.00678797 0.0527719 
0.00455007 -0.00659164 0.0525774 0.0145403 -0.00500828 0.0536002 0.0190529 -0.00685491 0.05271 
0.00164698 -0.00428262 0.0543892 0.00733822 -0.00345531 0.0541147 -0.00767912 -0.00239877 0.0521907 
-0.00267515 -0.00186049 0.0534733 0.0152281 -0.00168563 0.0527434 0.0188427 -0.00160886 0.0529837 
0.0278359 -0.00193898 0.0540421 0.0108557 -0.0130225 0.0566547 -0.00135593 -0.0102451 0.0567547 
0.0031002 -0.0119703 0.0562474 0.0136911 -0.0118027 0.0549485 0.000932189 -0.00830935 0.0563232 
0.00531399 -0.00983203 0.0551095 0.016268 -0.00845748 0.0565184 -0.00446412 -0.00705109 0.0546158 
0.00634106 -0.00624058 0.0562143 0.0261811 -0.0060131 0.0549567 -0.00802451 -0.00390219 0.0570422 
-0.00152737 -0.00463245 0.054629 0.0039497 -0.00372013 0.0569603 0.0128955 -0.00290099 0.055088 
0.0212074 -0.00358288 0.0547621 -0.00508487 -0.00192815 0.0554507 0.0236412 -0.00198971 0.0557463 
0.00616146 -0.0118096 0.05752 0.017761 -0.0106484 0.0580509 0.0214977 -0.010071 0.0571363 
0.0039457 -0.00887507 0.057644 0.00883956 -0.00858141 0.0579713 0.0118324 -0.00816733 0.0576257 
0.0198474 -0.00616639 0.0574697 -0.00397578 -0.00477323 0.0574039 0.00839743 -0.00282044 0.0576888 
0.0113691 -0.0042154 0.0576163 0.0209844 -0.00301942 0.0582236 0.0275825 -0.00486151 0.0582843 
0.000871003 -0.00181731 0.0574683 0.0160105 -0.0017709 0.0574174 0.027952 -0.00174946 0.0577205 
-0.00462621 0.0016248 0.0409538 0.0060063 0.00203512 0.0413027 0.0178199 0.00247639 0.0402628 
-0.00928771 0.00451097 0.0403011 -0.00601226 0.00486932 0.0411264 -0.000440246 0.00404452 0.0404397 
0.032064 0.00309082 0.040771 0.00644694 0.00605001 0.0408172 0.013914 0.00541902 0.040797 
0.0186323 0.00578564 0.0412862 0.0239873 0.0065705 0.0401656 0.0278546 0.00547307 0.0402906 
-0.00475942 0.00940273 0.0405623 0.002791 0.00928186 0.0401258 0.026528 0.00828879 0.041432 
0.00245509 0.0123432 0.0409004 0.00872615 0.0107417 0.0402588 0.0181002 0.0108481 0.0410466 
0.0228393 0.010498 0.0402309 0.0304404 0.0117205 0.040604 -0.0112831 0.0141194 0.0400999 
-0.00413442 0.0125097 0.0403139 -0.00120105 0.0132637 0.0410756 0.0151702 0.0138133 0.0402631 
0.0268289 0.0132824 0.0406932 -0.0120147 0.0170851 0.04108 -0.0067282 0.016887 0.0402351 
0.0129035 0.0163645 0.0411656 0.0174879 0.01635 0.0414223 0.0268293 0.0173995 0.0408266 
0.00438335 0.0182199 0.0405562 0.00863461 0.0188759 0.0407223 0.0230423 0.0183926 0.0401095 
0.0306997 0.0175015 0.040764 -0.00601677 0.0217518 0.0409343 0.0196451 0.0216624 0.041419 
0.0250001 0.0215893 0.0405419 0.0291263 0.021302 0.0406597 -5.18696e-05 0.0232594 0.0403329 
0.00274765 0.0243798 0.0405185 0.011012 0.0238926 0.040788 0.0166108 0.0230118 0.0411114 
0.000549495 0.0282511 0.0403524 0.00599068 0.0282761 0.0405521 0.00352171 0.0310126 0.0412685 
0.0148683 0.0323413 0.0414194 -0.00113359 0.00197923 0.0429804 0.013283 0.00165006 0.0422563 
0.0311863 0.00174196 0.043642 -0.010097 0.00316434 0.0438721 -0.00462309 0.0032976 0.0438283 
0.00889509 0.00329137 0.0439043 0.0208128 0.003891 0.043289 0.0235973 0.00386773 0.041509 
0.0275689 0.00389094 0.0430088 0.0319303 0.00492599 0.0433427 -0.0132591 0.00681884 0.0427831 
-0.0024303 0.00630655 0.0427482 0.00131221 0.00654205 0.0436388 0.00913933 0.00675024 0.0433805 
-0.00765109 0.00918223 0.0417364 -0.000475454 0.00983608 0.041539 0.0059979 0.00814347 0.0436483 
0.0126647 0.0078517 0.0425486 0.0156576 0.0082621 0.0433342 0.0322905 0.00800779 0.0420731 
-0.0108937 0.0100196 0.0427793 -0.00367945 0.0101822 0.0438928 0.00575418 0.0108983 0.0421449 
0.0102285 0.0106236 0.0431341 -0.0119614 0.0136265 0.0431295 0.0126116 0.0125851 0.0423209 
0.0153874 0.0148865 0.0435924 0.0217895 0.0147509 0.0422752 0.00175929 0.0163709 0.0415584 
0.0235866 0.017148 0.0432836 0.0289889 0.0151195 0.0423161 0.00159293 0.0191699 0.0427144 
0.0133113 0.0193738 0.0417703 0.0203112 0.017756 0.0431312 0.0276684 0.0195699 0.0431807 
-0.00306576 0.020186 0.0417459 0.00695686 0.0202072 0.0437697 0.0168129 0.0202362 0.0431379 
-0.00891125 0.0235847 0.0424118 0.0051068 0.0244823 0.0427855 0.0189909 0.0242951 0.0437449 
0.0257559 0.023818 0.0427038 -0.00399942 0.0256795 0.0416248 0.00367014 0.0272729 0.0432114 
0.00907842 0.0251676 0.0435317 0.0145524 0.0264105 0.0420415 0.0235368 0.0269292 0.0426043 
-0.00210121 0.0280225 0.0425313 0.0223322 0.0297052 0.0431048 0.000142147 0.03084 0.0421967 
0.00764794 0.030742 0.0416314 0.0117712 0.0301153 0.0422319 0.0188992 0.0301464 0.0417783 
0.00563407 0.032783 0.0428587 0.0121284 0.0333828 0.043072 -0.0072233 0.00205248 0.0447769 
-0.00279661 0.00161336 0.0461559 0.0223745 0.00172767 0.0450269 0.00254352 0.00277921 0.0445048 
0.00508423 0.00397485 0.0460381 0.0189416 0.00416222 0.0457653 -0.0110994 0.00530144 0.0463449 
-0.00348641 0.00622599 0.0459933 0.000955089 0.00502239 0.0463278 0.00888045 0.0060574 0.046459 
0.0126556 0.00512 0.0450229 0.0160738 0.00502827 0.0445125 0.0204353 0.00726694 0.0446099 
0.023556 0.00739212 0.0457613 0.0280006 0.00736909 0.0451243 -0.00735968 0.00765031 0.0455487 
0.00322532 0.0090935 0.0457896 0.0259004 0.00919564 0.0462681 0.000185027 0.0103282 0.0447617 
0.00899092 0.0107283 0.0459476 0.0125192 0.0102409 0.0457197 0.0179574 0.0101241 0.0447413 
0.0244518 0.0120754 0.0450313 0.0320944 0.0111736 0.0441353 -0.00820712 0.012544 0.0448742 
-0.00462224 0.0133122 0.0440501 -0.00126057 0.013054 0.0440766 0.0202572 0.0125564 0.0447237 
0.0234257 0.0148454 0.0464568 0.0317288 0.0149596 0.0449909 -0.00868567 0.0174481 0.044287 
-0.00563041 0.0172606 0.044177 -0.0017541 0.016632 0.0456009 0.00635557 0.0161548 0.0441939 
0.00916087 0.0151741 0.0450055 0.0176129 0.0173482 0.0446385 0.0259278 0.0166736 0.0453761 
-0.0113541 0.0189892 0.0450989 -0.00899477 0.020978 0.0449888 -0.00438068 0.0202617 0.045671 
-6.09119e-05 0.0218779 0.0464097 0.00341079 0.0210529 0.0445442 0.0099646 0.0210009 0.0449872 
0.01288 0.0201639 0.0460596 0.0160275 0.0202347 0.0460502 0.0193773 0.0207697 0.0449507 
0.0237595 0.0221964 0.0460592 0.0294477 0.0224754 0.0455876 -0.00773014 0.0242227 0.0460466 
-0.00412156 0.02381 0.0441365 0.0121574 0.0240893 0.0454105 0.0153823 0.0244643 0.0463029 
-0.0060461 0.0267733 0.0441233 0.00186722 0.0261863 0.0455111 0.0115389 0.0273564 0.0440103 
-5.14024e-05 0.0287562 0.0461915 0.00790359 0.0283935 0.0443016 0.0147609 0.0286143 0.0445781 
0.0184291 0.029962 0.0462119 0.00261129 0.0300513 0.045242 0.00893315 0.0311781 0.0459772 
0.0136366 0.031603 0.0464354 0.0248585 0.00160936 0.0469756 0.0294727 0.00218002 0.0472924 
-0.00697619 0.0042729 0.0472963 0.0321236 0.00478712 0.0465825 -0.0110485 0.00940813 0.0466725 
-0.000651143 0.0078693 0.0472333 0.0306128 0.00994967 0.0471572 0.0332663 0.00810658 0.0466007 
-0.00694885 0.0109743 0.0473351 0.00291913 0.0118052 0.0472581 0.00648906 0.0116615 0.0473625 
0.0157619 0.0103141 0.0470624 -0.011298 0.0131338 0.0473766 0.0041272 0.0146122 0.046562 
0.0144562 0.014681 0.0469128 0.0273614 0.0126381 0.0468345 -0.0116071 0.0165553 0.0471621 
-0.00655579 0.015337 0.0469887 0.00108391 0.0156472 0.0468848 0.0112969 0.0159701 0.0473586 
0.0209507 0.0167676 0.0469934 0.00111692 0.0190001 0.0473118 0.0255026 0.0195186 0.0471119 
0.00681114 0.0209263 0.0470861 -0.00392232 0.0228506 0.0473756 0.00686502 0.0247601 0.0470652 
0.0265711 0.0243041 0.0473257 -0.00295516 0.0262823 0.0466178 0.0124581 0.0271383 0.0468681 
-0.00428111 0.00168299 0.0513588 -0.00115739 0.00186428 0.0519237 0.00874924 0.00243681 0.051171 
-0.00855288 0.00470883 0.0514322 0.0310584 0.00289087 0.0515858 -0.000109816 0.00652059 0.0514988 
0.0190637 0.00639992 0.0520592 0.0228658 0.00694539 0.05142 0.0265784 0.00558548 0.0511035 
0.031868 0.00710164 0.0517137 -0.00301308 0.00989633 0.0518166 0.0056915 0.00843448 0.0520042 
-0.0132914 0.0114122 0.0510886 0.0162915 0.0112082 0.051211 0.0320497 0.0102336 0.0513483 
-0.00757638 0.0131157 0.0512332 -0.00450027 0.0132761 0.0514236 0.00471028 0.0145234 0.0510969 
0.0153338 0.014134 0.0512012 -0.00868579 0.0160645 0.0511957 -0.00339029 0.0170579 0.0516155 
0.00940789 0.0163852 0.051144 0.0231253 0.0154711 0.051669 0.0317438 0.0158584 0.0518318 
0.00518965 0.0192507 0.0516859 0.0151439 0.0195486 0.0520361 0.0181605 0.0198088 0.0514958 
0.0261392 0.0185239 0.0516431 -0.0057696 0.0247338 0.0511084 0.0107562 0.0243299 0.0518061 
0.0139067 0.0247984 0.0514946 0.00305119 0.0255001 0.0511261 0.0191665 0.0254168 0.0511732 
0.0268955 0.0260292 0.0518728 -0.000140676 0.0284615 0.0517703 0.0129788 0.0283637 0.0520031 
0.0201843 0.0294006 0.0510945 0.00550601 0.0312061 0.0514975 0.00603907 0.00249754 0.0528679 
0.0119621 0.00184781 0.0528437 0.0252424 0.00248516 0.0534134 -0.00958226 0.00417424 0.0544059 
-0.00583383 0.00405327 0.0534935 0.014372 0.00380946 0.0526826 -0.0112599 0.00667739 0.0545556 
-0.00699977 0.00691443 0.0527866 -0.00198112 0.00587773 0.0545767 0.00845511 0.0069644 0.052709 
0.0215626 0.00588803 0.0540157 -0.00909388 0.00990068 0.0527625 0.00179141 0.00925083 0.0521192 
0.0161395 0.00846608 0.0538362 0.0261562 0.00904512 0.0543699 0.0072982 0.0110501 0.0524024 
0.00952942 0.0111609 0.0544612 0.012558 0.011719 0.0541714 0.019674 0.010736 0.0537626 
0.0225269 0.010642 0.0527954 0.0261356 0.0112667 0.0522615 0.0289678 0.0112087 0.0539236 
-0.0117086 0.0129934 0.0538332 -0.00867117 0.0130018 0.0542502 -0.00550273 0.0144616 0.054285 
-0.00126357 0.0127141 0.0528513 0.00181562 0.0140781 0.0525767 0.0205935 0.0134804 0.0523065 
0.0290691 0.0139447 0.0522139 -0.000680211 0.0158856 0.0521811 0.0189546 0.0169789 0.0522795 
0.0252168 0.0167356 0.0540167 -0.0103843 0.017733 0.0536957 0.0102441 0.0192615 0.0534474 
-0.00700457 0.0204463 0.0529012 -0.00164371 0.0204047 0.0528734 0.00277127 0.0221977 0.0527968 
0.0221589 0.0206816 0.0526041 0.0266065 0.021142 0.0534297 0.0300575 0.021671 0.0537799 
0.00669531 0.0231412 0.0535497 0.0206984 0.0235284 0.0531462 0.0237746 0.024103 0.0521535 
-0.00268448 0.0258336 0.0524114 0.0166468 0.0259107 0.0527428 -0.00202379 0.0288556 0.0544292 
0.00640716 0.0281223 0.0528442 0.0242955 0.0275162 0.0523878 0.00281675 0.0322562 0.0541282 
0.00892714 0.030415 0.052654 0.0138686 0.0309899 0.0532878 0.0103048 0.0329975 0.0539071 
-0.0110937 0.00235257 0.0568451 -0.00141319 0.00248349 0.0554534 0.00297479 0.00157546 0.05511 
0.00974288 0.00251888 0.0554365 0.015077 0.00311671 0.0562061 0.0183883 0.00450993 0.0564802 
0.0240614 0.00399337 0.0559438 0.0309693 0.00387892 0.0563751 0.00256454 0.00504477 0.0547362 
0.00539981 0.00677328 0.0550311 0.0129918 0.00558209 0.0549468 0.0284973 0.00685269 0.0564108 
-0.00780295 0.00752324 0.0563975 -0.000416113 0.00796892 0.0565487 0.0103175 0.00757096 0.0555233 
0.0313177 0.0082393 0.0548547 -0.00660379 0.0106175 0.0548587 -0.00195985 0.011005 0.0556117 
0.00540909 0.0109611 0.0551821 0.0154466 0.0117795 0.0550998 0.0239402 0.012442 0.0560391 
-0.012851 0.0129648 0.0568534 0.00745019 0.014216 0.0548135 0.0199896 0.0145767 0.0569172 
-0.00194754 0.0158612 0.0550417 0.00424633 0.0161051 0.0566766 0.0108982 0.015203 0.0546834 
0.0149799 0.0151908 0.0561793 0.028165 0.0173045 0.0558189 0.032425 0.0158341 0.0553371 
-0.00601703 0.018702 0.056656 0.000983062 0.0191243 0.0548594 0.0062278 0.0179789 0.0546165 
0.0138646 0.0189102 0.0567617 0.0169346 0.0177794 0.0566973 0.0226556 0.0195078 0.056075 
-0.00848314 0.0201491 0.0556156 0.000548985 0.0222566 0.0557525 0.0043895 0.0205029 0.0548855 
0.00874778 0.0202638 0.0563359 0.0117972 0.020805 0.0555555 -0.00844415 0.0238977 0.056328 
-0.00507065 0.0227712 0.0570545 0.00285772 0.024291 0.0551225 0.0073349 0.0228628 0.0568551 
0.0099292 0.0245975 0.0569614 0.0172178 0.0238474 0.0548547 0.0204933 0.0246974 0.0568163 
0.0232243 0.0248782 0.0550422 0.0261427 0.0248619 0.0567843 -0.000771651 0.0251073 0.0547562 
0.00138536 0.0270671 0.0558757 0.0059637 0.0258238 0.0557809 0.0141567 0.0250991 0.0556722 
0.00518758 0.0298535 0.0563761 0.0161116 0.029941 0.0564977 0.0236887 0.0285788 0.0553819 
0.0201368 0.0311673 0.0550008 0.00864767 0.0325316 0.056509 0.0174093 0.00204258 0.0582866 
-0.00833279 0.00402087 0.0580715 -0.00474808 0.00286702 0.0572406 0.000279705 0.00420399 0.0573814 
0.00766642 0.00319404 0.0576171 0.0116113 0.00402081 0.057763 0.0271196 0.00297535 0.0574328 
-0.00492618 0.00744431 0.0573724 0.0196171 0.00729444 0.0577418 0.0234221 0.0065801 0.0574685 
-0.010867 0.00922699 0.0578284 0.00790776 0.00752349 0.0576009 0.0122246 0.00967273 0.0582853 
0.0156308 0.00812939 0.0571415 0.0234967 0.00992875 0.0576819 0.00416554 0.0106827 0.0582327 
0.0187457 0.0103474 0.0582218 0.0271054 0.0109243 0.0582003 -0.00607408 0.0125651 0.0572174 
-0.000516874 0.0125277 0.0580817 0.0144055 0.0130067 0.0581591 0.0283046 0.0140207 0.0572002 
0.0313479 0.0138085 0.0583143 -0.0113929 0.0167031 0.0582747 -0.00719831 0.0161512 0.057879 
-0.00256043 0.0152475 0.0583771 0.00134867 0.0154703 0.0581362 0.00890819 0.0174111 0.0578886 
0.0242589 0.0171194 0.057399 -0.00144458 0.0181233 0.0581585 0.00376167 0.0191916 0.0577336 
0.0263327 0.0196517 0.0572594 0.0302567 0.0203139 0.0570924 -0.000420718 0.023796 0.0582611 
0.0132699 0.023065 0.0581214 0.0172089 0.0243146 0.0583414 -0.00467473 0.0257576 0.0580673 
-0.00184834 0.0279191 0.057294 0.0118633 0.029306 0.0574256 0.0193929 0.0293978 0.0579898 
0.00179034 0.0316821 0.0574765 0.0142078 0.0321299 0.0577085 
VERTICES 500 1000
1 0 
1 1 
1 2 
1 3 
1 4 
1 5 
1 6 
1 7 
1 8 
1 9 
1 10 
1 11 
1 12 
1 13 
1 14 
1 15 
1 16 
1 17 
1 18 
1 19 
1 20 
1 21 
1 22 
1 23 
1 24 
1 25 
1 26 
1 27 
1 28 
1 29 
1 30 
1 31 
1 32 
1 33 
1 34 
1 35 
1 36 
1 37 
1 38 
1 39 
1 40 
1 41 
1 42 
1 43 
1 44 
1 45 
1 46 
1 47 
1 48 
1 49 
1 50 
1 51 
1 52 
1 53 
1 54 
1 55 
1 56 
1 57 
1 58 
1 59 
1 60 
1 61 
1 62 
1 63 
1 64 
1 65 
1 66 
1 67 
1 68 
1 69 
1 70 
1 71 
1 72 
1 73 
1 74 
1 75 
1 76 
1 77 
1 78 
1 79 
1 80 
1 81 
1 82 
1 83 
1 84 
1 85 
1 86 
1 87 
1 88 
1 89 
1 90 
1 91 
1 92 
1 93 
1 94 
1 95 
1 96 
1 97 
1 98 
1 99 
1 100 
1 101 
1 102 
1 103 
1 104 
1 105 
1 106 
1 107 
1 108 
1 109 
1 110 
1 111 
1 112 
1 113 
1 114 
1 115 
1 116 
1 117 
1 118 
1 119 
1 120 
1 121 
1 122 
1 123 
1 124 
1 125 
1 126 
1 127 
1 128 
1 129 
1 130 
1 131 
1 132 
1 133 
1 134 
1 135 
1 136 
1 137 
1 138 
1 139 
1 140 
1 141 
1 142 
1 143 
1 144 
1 145 
1 146 
1 147 
1 148 
1 149 
1 150 
1 151 
1 152 
1 153 
1 154 
1 155 
1 156 
1 157 
1 158 
1 159 
1 160 
1 161 
1 162 
1 163 
1 164 
1 165 
1 166 
1 167 
1 168 
1 169 
1 170 
1 171 
1 172 
1 173 
1 174 
1 175 
1 176 
1 177 
1 178 
1 179 
1 180 
1 181 
1 182 
1 183 
1 184 
1 185 
1 186 
1 187 
1 188 
1 189 
1 190 
1 191 
1 192 
1 193 
1 194 
1 195 
1 196 
1 197 
1 198 
1 199 
1 200 
1 201 
1 202 
1 203 
1 204 
1 205 
1 206 
1 207 
1 208 
1 209 
1 210 
1 211 
1 212 
1 213 
1 214 
1 215 
1 216 
1 217 
1 218 
1 219 
1 220 
1 221 
1 222 
1 223 
1 224 
1 225 
1 226 
1 227 
1 228 
1 229 
1 230 
1 231 
1 232 
1 233 
1 234 
1 235 
1 236 
1 237 
1 238 
1 239 
1 240 
1 241 
1 242 
1 243 
1 244 
1 245 
1 246 
1 247 
1 248 
1 249 
1 250 
1 251 
1 252 
1 253 
1 254 
1 255 
1 256 
1 257 
1 258 
1 259 
1 260 
1 261 
1 262 
1 263 
1 264 
1 265 
1 266 
1 267 
1 268 
1 269 
1 270 
1 271 
1 272 
1 273 
1 274 
1 275 
1 276 
1 277 
1 278 
1 279 
1 280 
1 281 
1 282 
1 283 
1 284 
1 285 
1 286 
1 287 
1 288 
1 289 
1 290 
1 291 
1 292 
1 293 
1 294 
1 295 
1 296 
1 297 
1 298 
1 299 
1 300 
1 301 
1 302 
1 303 
1 304 
1 305 
1 306 
1 307 
1 308 
1 309 
1 310 
1 311 
1 312 
1 313 
1 314 
1 315 
1 316 
1 317 
1 318 
1 319 
1 320 
1 321 
1 322 
1 323 
1 324 
1 325 
1 326 
1 327 
1 328 
1 329 
1 330 
1 331 
1 332 
1 333 
1 334 
1 335 
1 336 
1 337 
1 338 
1 339 
1 340 
1 341 
1 342 
1 343 
1 344 
1 345 
1 346 
1 347 
1 348 
1 349 
1 350 
1 351 
1 352 
1 353 
1 354 
1 355 
1 356 
1 357 
1 358 
1 359 
1 360 
1 361 
1 362 
1 363 
1 364 
1 365 
1 366 
1 367 
1 368 
1 369 
1 370 
1 371 
1 372 
1 373 
1 374 
1 375 
1 376 
1 377 
1 378 
1 379 
1 380 
1 381 
1 382 
1 383 
1 384 
1 385 
1 386 
1 387 
1 388 
1 389 
1 390 
1 391 
1 392 
1 393 
1 394 
1 395 
1 396 
1 397 
1 398 
1 399 
1 400 
1 401 
1 402 
1 403 
1 404 
1 405 
1 406 
1 407 
1 408 
1 409 
1 410 
1 411 
1 412 
1 413 
1 414 
1 415 
1 416 
1 417 
1 418 
1 419 
1 420 
1 421 
1 422 
1 423 
1 424 
1 425 
1 426 
1 427 
1 428 
1 429 
1 430 
1 431 
1 432 
1 433 
1 434 
1 435 
1 436 
1 437 
1 438 
1 439 
1 440 
1 441 
1 442 
1 443 
1 444 
1 445 
1 446 
1 447 
1 448 
1 449 
1 450 
1 451 
1 452 
1 453 
1 454 
1 455 
1 456 
1 457 
1 458 
1 459 
1 460 
1 461 
1 462 
1 463 
1 464 
1 465 
1 466 
1 467 
1 468 
1 469 
1 470 
1 471 
1 472 
1 473 
1 474 
1 475 
1 476 
1 477 
1 478 
1 479 
1 480 
1 481 
1 482 
1 483 
1 484 
1 485 
1 486 
1 487 
1 488 
1 489 
1 490 
1 491 
1 492 
1 493 
1 494 
1 495 
1 496 
1 497 
1 498 
1 499 

POINT_DATA 500
FIELD FieldData 7
id 1 500 int
18 49 41 26 45 58 25 9 29 
38 7 51 44 19 10 56 3 27 
22 13 48 40 4 47 2 16 50 
55 21 23 6 34 12 20 1 37 
24 5 46 32 17 31 30 15 11 
8 33 42 39 52 36 53 35 54 
28 14 57 43 263 290 294 302 260 
300 274 308 280 254 297 266 251 295 
285 264 253 268 269 273 287 265 291 
276 299 289 309 262 282 252 301 298 
256 257 270 278 305 259 255 283 271 
281 304 261 267 296 272 306 277 258 
284 293 275 286 307 292 303 288 279 
191 104 138 101 89 73 160 209 212 
202 242 234 85 61 149 100 243 112 
157 169 244 210 152 250 80 137 163 
211 238 90 64 180 97 226 127 95 
196 168 106 184 188 159 98 148 156 
207 205 132 141 83 102 68 72 66 
65 136 144 122 118 113 128 237 220 
63 161 230 215 108 145 206 216 189 
62 222 120 208 146 110 126 179 121 
182 231 249 197 77 192 133 143 236 
151 140 170 177 171 187 139 91 134 
239 233 232 107 186 235 69 119 214 
172 246 158 129 67 131 185 92 96 
94 130 70 123 213 99 165 74 88 
150 217 147 203 59 223 194 227 87 
116 154 109 124 79 221 115 75 84 
71 82 167 114 219 228 86 174 105 
190 225 153 81 224 111 76 176 200 
125 164 247 199 218 193 173 93 248 
229 135 204 142 198 183 166 78 178 
175 181 241 155 201 245 60 240 103 
117 162 195 416 397 469 499 380 423 
331 398 384 433 354 493 455 352 317 
405 497 492 428 409 462 472 471 467 
385 394 322 444 366 430 447 418 484 
437 353 325 334 459 369 434 383 357 
449 378 363 452 359 338 413 313 453 
333 475 466 470 396 448 343 476 350 
473 361 327 488 342 415 490 368 427 
387 386 332 412 310 379 436 364 376 
399 451 367 463 349 326 360 500 370 
320 392 487 339 486 323 440 482 344 
365 328 429 382 314 460 438 454 362 
425 498 374 403 456 340 311 408 337 
312 373 346 411 348 371 406 481 465 
391 377 395 319 318 400 347 435 404 
495 485 464 390 341 442 458 388 315 
381 402 432 439 329 351 401 443 477 
393 457 468 417 389 330 450 335 316 
419 355 489 445 410 345 358 446 421 
324 424 494 321 480 375 478 461 483 
420 414 474 336 407 479 491 356 422 
426 372 496 441 431 
type 1 500 int
1 1 1 1 1 1 1 1 1 
1 1 1 1 1 1 1 1 1 
1 1 1 1 1 1 1 1 1 
1 1 1 1 1 1 1 1 1 
1 1 1 1 1 1 1 1 1 
1 1 1 1 1 1 1 1 1 
1 1 1 1 1 1 1 1 1 
1 1 1 1 1 1 1 1 1 
1 1 1 1 1 1 1 1 1 
1 1 1 1 1 1 1 1 1 
1 1 1 1 1 1 1 1 1 
1 1 1 1 1 1 1 1 1 
1 1 1 1 1 1 1 1 1 
1 1 1 1 1 1 1 1 1 
1 1 1 1 1 1 1 1 1 
1 1 1 1 1 1 1 1 1 
1 1 1 1 1 1 1 1 1 
1 1 1 1 1 1 1 1 1 
1 1 1 1 1 1 1 1 1 
1 1 1 1 1 1 1 1 1 
1 1 1 1 1 1 1 1 1 
1 1 1 1 1 1 1 1 1 
1 1 1 1 1 1 1 1 1 
1 1 1 1 1 1 1 1 1 
1 1 1 1 1 1 1 1 1 
1 1 1 1 1 1 1 1 1 
1 1 1 1 1 1 1 1 1 
1 1 1 1 1 1 1 1 1 
1 1 1 1 1 1 1 1 1 
1 1 1 1 1 1 1 1 1 
1 1 1 1 1 1 1 1 1 
1 1 1 1 1 1 1 1 1 
1 1 1 1 1 1 1 1 1 
1 1 1 1 1 1 1 1 1 
1 1 1 1 1 1 1 1 1 
1 1 1 1 1 1 1 1 1 
1 1 1 1 1 1 1 1 1 
1 1 1 1 1 1 1 1 1 
1 1 1 1 1 1 1 1 1 
1 1 1 1 1 1 1 1 1 
1 1 1 1 1 1 1 1 1 
1 1 1 1 1 1 1 1 1 
1 1 1 1 1 1 1 1 1 
1 1 1 1 1 1 1 1 1 
1 1 1 1 1 1 1 1 1 
1 1 1 1 1 1 1 1 1 
1 1 1 1 1 1 1 1 1 
1 1 1 1 1 1 1 1 1 
1 1 1 1 1 1 1 1 1 
1 1 1 1 1 1 1 1 1 
1 1 1 1 1 1 1 1 1 
1 1 1 1 1 1 1 1 1 
1 1 1 1 1 1 1 1 1 
1 1 1 1 1 1 1 1 1 
1 1 1 1 1 1 1 1 1 
1 1 1 1 1 
i 3 500 int
0 0 0 0 0 0 0 0 0 
0 0 0 0 0 0 0 0 0 
0 0 0 0 0 0 0 0 0 
0 0 0 0 0 0 0 0 0 
0 0 0 0 0 0 0 0 0 
0 0 0 0 0 0 0 0 0 
0 0 0 0 0 0 0 0 0 
0 0 0 0 0 0 0 0 0 
0 0 0 0 0 0 0 0 0 
0 0 0 0 0 0 0 0 0 
0 0 0 0 0 0 0 0 0 
0 0 0 0 0 0 0 0 0 
0 0 0 0 0 0 0 0 0 
0 0 0 0 0 0 0 0 0 
0 0 0 0 0 0 0 0 0 
0 0 0 0 0 0 0 0 0 
0 0 0 0 0 0 0 0 0 
0 0 0 0 0 0 0 0 0 
0 0 0 0 0 0 0 0 0 
0 0 0 0 0 0 0 0 0 
0 0 0 0 0 0 0 0 0 
0 0 0 0 0 0 0 0 0 
0 0 0 0 0 0 0 0 0 
0 0 0 0 0 0 0 0 0 
0 0 0 0 0 0 0 0 0 
0 0 0 0 0 0 0 0 0 
0 0 0 0 0 0 0 0 0 
0 0 0 0 0 0 0 0 0 
0 0 0 0 0 0 0 0 0 
0 0 0 0 0 0 0 0 0 
0 0 0 0 0 0 0 0 0 
0 0 0 0 0 0 0 0 0 
0 0 0 0 0 0 0 0 0 
0 0 0 0 0 0 0 0 0 
0 0 0 0 0 0 0 0 0 
0 0 0 0 0 0 0 0 0 
0 0 0 0 0 0 0 0 0 
0 0 0 0 0 0 0 0 0 
0 0 0 0 0 0 0 0 0 
0 0 0 0 0 0 0 0 0 
0 0 0 0 0 0 0 0 0 
0 0 0 0 0 0 0 0 0 
0 0 0 0 0 0 0 0 0 
0 0 0 0 0 0 0 0 0 
0 0 0 0 0 0 0 0 0 
0 0 0 0 0 0 0 0 0 
0 0 0 0 0 0 0 0 0 
0 0 0 0 0 0 0 0 0 
0 0 0 0 0 0 0 0 0 
0 0 0 0 0 0 0 0 0 
0 0 0 0 0 0 0 0 0 
0 0 0 0 0 0 0 0 0 
0 0 0 0 0 0 0 0 0 
0 0 0 0 0 0 0 0 0 
0 0 0 0 0 0 0 0 0 
0 0 0 0 0 0 0 0 0 
0 0 0 0 0 0 0 0 0 
0 0 0 0 0 0 0 0 0 
0 0 0 0 0 0 0 0 0 
0 0 0 0 0 0 0 0 0 
0 0 0 0 0 0 0 0 0 
0 0 0 0 0 0 0 0 0 
0 0 0 0 0 0 0 0 0 
0 0 0 0 0 0 0 0 0 
0 0 0 0 0 0 0 0 0 
0 0 0 0 0 0 0 0 0 
0 0 0 0 0 0 0 0 0 
0 0 0 0 0 0 0 0 0 
0 0 0 0 0 0 0 0 0 
0 0 0 0 0 0 0 0 0 
0 0 0 0 0 0 0 0 0 
0 0 0 0 0 0 0 0 0 
0 0 0 0 0 0 0 0 0 
0 0 0 0 0 0 0 0 0 
0 0 0 0 0 0 0 0 0 
0 0 0 0 0 0 0 0 0 
0 0 0 0 0 0 0 0 0 
0 0 0 0 0 0 0 0 0 
0 0 0 0 0 0 0 0 0 
0 0 0 0 0 0 0 0 0 
0 0 0 0 0 0 0 0 0 
0 0 0 0 0 0 0 0 0 
0 0 0 0 0 0 0 0 0 
0 0 0 0 0 0 0 0 0 
0 0 0 0 0 0 0 0 0 
0 0 0 0 0 0 0 0 0 
0 0 0 0 0 0 0 0 0 
0 0 0 0 0 0 0 0 0 
0 0 0 0 0 0 0 0 0 
0 0 0 0 0 0 0 0 0 
0 0 0 0 0 0 0 0 0 
0 0 0 0 0 0 0 0 0 
0 0 0 0 0 0 0 0 0 
0 0 0 0 0 0 0 0 0 
0 0 0 0 0 0 0 0 0 
0 0 0 0 0 0 0 0 0 
0 0 0 0 0 0 0 0 0 
0 0 0 0 0 0 0 0 0 
0 0 0 0 0 0 0 0 0 
0 0 0 0 0 0 0 0 0 
0 0 0 0 0 0 0 0 0 
0 0 0 0 0 0 0 0 0 
0 0 0 0 0 0 0 0 0 
0 0 0 0 0 0 0 0 0 
0 0 0 0 0 0 0 0 0 
0 0 0 0 0 0 0 0 0 
0 0 0 0 0 0 0 0 0 
0 0 0 0 0 0 0 0 0 
0 0 0 0 0 0 0 0 0 
0 0 0 0 0 0 0 0 0 
0 0 0 0 0 0 0 0 0 
0 0 0 0 0 0 0 0 0 
0 0 0 0 0 0 0 0 0 
0 0 0 0 0 0 0 0 0 
0 0 0 0 0 0 0 0 0 
0 0 0 0 0 0 0 0 0 
0 0 0 0 0 0 0 0 0 
0 0 0 0 0 0 0 0 0 
0 0 0 0 0 0 0 0 0 
0 0 0 0 0 0 0 0 0 
0 0 0 0 0 0 0 0 0 
0 0 0 0 0 0 0 0 0 
0 0 0 0 0 0 0 0 0 
0 0 0 0 0 0 0 0 0 
0 0 0 0 0 0 0 0 0 
0 0 0 0 0 0 0 0 0 
0 0 0 0 0 0 0 0 0 
0 0 0 0 0 0 0 0 0 
0 0 0 0 0 0 0 0 0 
0 0 0 0 0 0 0 0 0 
0 0 0 0 0 0 0 0 0 
0 0 0 0 0 0 0 0 0 
0 0 0 0 0 0 0 0 0 
0 0 0 0 0 0 0 0 0 
0 0 0 0 0 0 0 0 0 
0 0 0 0 0 0 0 0 0 
0 0 0 0 0 0 0 0 0 
0 0 0 0 0 0 0 0 0 
0 0 0 0 0 0 0 0 0 
0 0 0 0 0 0 0 0 0 
0 0 0 0 0 0 0 0 0 
0 0 0 0 0 0 0 0 0 
0 0 0 0 0 0 0 0 0 
0 0 0 0 0 0 0 0 0 
0 0 0 0 0 0 0 0 0 
0 0 0 0 0 0 0 0 0 
0 0 0 0 0 0 0 0 0 
0 0 0 0 0 0 0 0 0 
0 0 0 0 0 0 0 0 0 
0 0 0 0 0 0 0 0 0 
0 0 0 0 0 0 0 0 0 
0 0 0 0 0 0 0 0 0 
0 0 0 0 0 0 0 0 0 
0 0 0 0 0 0 0 0 0 
0 0 0 0 0 0 0 0 0 
0 0 0 0 0 0 0 0 0 
0 0 0 0 0 0 0 0 0 
0 0 0 0 0 0 0 0 0 
0 0 0 0 0 0 0 0 0 
0 0 0 0 0 0 0 0 0 
0 0 0 0 0 0 0 0 0 
0 0 0 0 0 0 0 0 0 
0 0 0 0 0 0 0 0 0 
0 0 0 0 0 0 0 0 0 
0 0 0 0 0 0 0 0 0 
0 0 0 0 0 0 0 0 0 
0 0 0 0 0 0 
v 3 500 double
0 0 -0.51387095 0 0 -0.51387095 0 0 -0.51387095 
0 0 -0.51387095 0 0 -0.51387095 0 0 -0.51387095 
0 0 -0.51387095 0 0 -0.51387095 0 0 -0.51387095 
0 0 -0.51387095 0 0 -0.51387095 0 0 -0.51387095 
0 0 -0.51387095 0 0 -0.51387095 0 0 -0.51387095 
0 0 -0.51387095 0 0 -0.51387095 0 0 -0.51387095 
0 0 -0.51387095 0 0 -0.51387095 0 0 -0.51387095 
0 0 -0.51387095 0 0 -0.51387095 0 0 -0.51387095 
0 0 -0.51387095 0 0 -0.51387095 0 0 -0.51387095 
0 0 -0.51387095 0 0 -0.51387095 0 0 -0.51387095 
0 0 -0.51387095 0 0 -0.51387095 0 0 -0.51387095 
0 0 -0.51387095 0 0 -0.51387095 0 0 -0.51387095 
0 0 -0.51387095 0 0 -0.51387095 0 0 -0.51387095 
0 0 -0.51387095 0 0 -0.51387095 0 0 -0.51387095 
0 0 -0.51387095 0 0 -0.51387095 0 0 -0.51387095 
0 0 -0.51387095 0 0 -0.51387095 0 0 -0.51387095 
0 0 -0.51387095 0 0 -0.51387095 0 0 -0.51387095 
0 0 -0.51387095 0 0 -0.51387095 0 0 -0.51387095 
0 0 -0.51387095 0 0 -0.51387095 0 0 -0.51387095 
0 0 -0.51387095 0 0 -0.21957095 0 0 -0.21957095 
0 0 -0.21957095 0 0 -0.21957095 0 0 -0.21957095 
0 0 -0.21957095 0 0 -0.21957095 0 0 -0.21957095 
0 0 -0.21957095 0 0 -0.21957095 0 0 -0.21957095 
0 0 -0.21957095 0 0 -0.21957095 0 0 -0.21957095 
0 0 -0.21957095 0 0 -0.21957095 0 0 -0.21957095 
0 0 -0.21957095 0 0 -0.21957095 0 0 -0.21957095 
0 0 -0.21957095 0 0 -0.21957095 0 0 -0.21957095 
0 0 -0.21957095 0 0 -0.21957095 0 0 -0.21957095 
0 0 -0.21957095 0 0 -0.21957095 0 0 -0.21957095 
0 0 -0.21957095 0 0 -0.21957095 0 0 -0.21957095 
0 0 -0.21957095 0 0 -0.21957095 0 0 -0.21957095 
0 0 -0.21957095 0 0 -0.21957095 0 0 -0.21957095 
0 0 -0.21957095 0 0 -0.21957095 0 0 -0.21957095 
0 0 -0.21957095 0 0 -0.21957095 0 0 -0.21957095 
0 0 -0.21957095 0 0 -0.21957095 0 0 -0.21957095 
0 0 -0.21957095 0 0 -0.21957095 0 0 -0.21957095 
0 0 -0.21957095 0 0 -0.21957095 0 0 -0.21957095 
0 0 -0.21957095 0 0 -0.21957095 0 0 -0.21957095 
0 0 -0.21957095 0 0 -0.21957095 0 0 -0.21957095 
0 0 -0.51387095 0 0 -0.51387095 0 0 -0.51387095 
0 0 -0.51387095 0 0 -0.51387095 0 0 -0.51387095 
0 0 -0.51387095 0 0 -0.51387095 0 0 -0.51387095 
0 0 -0.51387095 0 0 -0.51387095 0 0 -0.51387095 
0 0 -0.51387095 0 0 -0.51387095 0 0 -0.51387095 
0 0 -0.51387095 0 0 -0.51387095 0 0 -0.51387095 
0 0 -0.51387095 0 0 -0.51387095 0 0 -0.51387095 
0 0 -0.51387095 0 0 -0.51387095 0 0 -0.51387095 
0 0 -0.51387095 0 0 -0.51387095 0 0 -0.51387095 
0 0 -0.51387095 0 0 -0.51387095 0 0 -0.51387095 
0 0 -0.51387095 0 0 -0.51387095 0 0 -0.51387095 
0 0 -0.51387095 0 0 -0.51387095 0 0 -0.51387095 
0 0 -0.51387095 0 0 -0.51387095 0 0 -0.51387095 
0 0 -0.51387095 0 0 -0.51387095 0 0 -0.51387095 
0 0 -0.51387095 0 0 -0.51387095 0 0 -0.51387095 
0 0 -0.51387095 0 0 -0.51387095 0 0 -0.51387095 
0 0 -0.51387095 0 0 -0.51387095 0 0 -0.51387095 
0 0 -0.51387095 0 0 -0.51387095 0 0 -0.51387095 
0 0 -0.51387095 0 0 -0.51387095 0 0 -0.51387095 
0 0 -0.51387095 0 0 -0.51387095 0 0 -0.51387095 
0 0 -0.51387095 0 0 -0.51387095 0 0 -0.51387095 
0 0 -0.51387095 0 0 -0.51387095 0 0 -0.51387095 
0 0 -0.51387095 0 0 -0.51387095 0 0 -0.51387095 
0 0 -0.51387095 0 0 -0.51387095 0 0 -0.51387095 
0 0 -0.51387095 0 0 -0.51387095 0 0 -0.51387095 
0 0 -0.51387095 0 0 -0.51387095 0 0 -0.51387095 
0 0 -0.51387095 0 0 -0.51387095 0 0 -0.51387095 
0 0 -0.51387095 0 0 -0.51387095 0 0 -0.51387095 
0 0 -0.51387095 0 0 -0.51387095 0 0 -0.51387095 
0 0 -0.51387095 0 0 -0.51387095 0 0 -0.51387095 
0 0 -0.51387095 0 0 -0.51387095 0 0 -0.51387095 
0 0 -0.51387095 0 0 -0.51387095 0 0 -0.51387095 
0 0 -0.51387095 0 0 -0.51387095 0 0 -0.51387095 
0 0 -0.51387095 0 0 -0.51387095 0 0 -0.51387095 
0 0 -0.51387095 0 0 -0.51387095 0 0 -0.51387095 
0 0 -0.51387095 0 0 -0.51387095 0 0 -0.51387095 
0 0 -0.51387095 0 0 -0.51387095 0 0 -0.51387095 
0 0 -0.51387095 0 0 -0.51387095 0 0 -0.51387095 
0 0 -0.51387095 0 0 -0.51387095 0 0 -0.51387095 
0 0 -0.51387095 0 0 -0.51387095 0 0 -0.51387095 
0 0 -0.51387095 0 0 -0.51387095 0 0 -0.51387095 
0 0 -0.51387095 0 0 -0.51387095 0 0 -0.51387095 
0 0 -0.51387095 0 0 -0.51387095 0 0 -0.51387095 
0 0 -0.51387095 0 0 -0.51387095 0 0 -0.51387095 
0 0 -0.51387095 0 0 -0.51387095 0 0 -0.51387095 
0 0 -0.51387095 0 0 -0.51387095 0 0 -0.51387095 
0 0 -0.51387095 0 0 -0.51387095 0 0 -0.51387095 
0 0 -0.51387095 0 0 -0.51387095 0 0 -0.51387095 
0 0 -0.51387095 0 0 -0.51387095 0 0 -0.51387095 
0 0 -0.51387095 0 0 -0.51387095 0 0 -0.51387095 
0 0 -0.51387095 0 0 -0.51387095 0 0 -0.51387095 
0 0 -0.51387095 0 0 -0.51387095 0 0 -0.51387095 
0 0 -0.51387095 0 0 -0.51387095 0 0 -0.51387095 