# vtk DataFile Version 4.1
Generated by LIGGGHTS
ASCII
DATASET POLYDATA
POINTS 1000 float
-0.00189535 -0.0167506 0.00160292 0.00095379 -0.0165894 0.00155855 0.00585486 -0.01603 0.00151502 
-0.000613026 -0.0142016 0.00150495 0.00207922 -0.0132475 0.00150815 0.00492822 -0.0133324 0.00170638 
0.00772505 -0.013882 0.00153989 0.0164895 -0.0126294 0.00187257 0.0219129 -0.0128964 0.00148638 
-0.00657585 -0.0113921 0.001498 0.00238905 -0.0104255 0.00165494 0.00525057 -0.0104761 0.00150195 
0.0081171 -0.0104186 0.00152292 0.0109678 -0.0103556 0.00148219 0.0135734 -0.0115185 0.00151193 
0.0192288 -0.0119181 0.0015728 0.0228701 -0.0103727 0.00242557 -0.0064129 -0.00758309 0.00147613 
-0.00456397 -0.00955429 0.00235524 -0.000410302 -0.00987866 0.00152449 0.00381592 -0.00797987 0.00160248 
0.00666047 -0.00798573 0.00164422 0.00950361 -0.00789856 0.00150679 0.0123143 -0.00790555 0.00206733 
0.0149102 -0.00900877 0.00151267 0.0202559 -0.00929802 0.00196318 0.0253413 -0.00905975 0.00187043 
0.0281424 -0.00946185 0.00152232 0.0321913 -0.00789705 0.00160808 -0.0322643 -0.00546671 0.00159202 
-0.0295108 -0.00623943 0.00160191 -0.0266681 -0.00650736 0.00187247 -0.0238255 -0.00669674 0.00157654 
-0.00361634 -0.00698677 0.00151739 -0.000812257 -0.00711442 0.00207396 0.00799075 -0.00546444 0.00152825 
0.0129062 -0.00517032 0.00148853 0.0155355 -0.00623867 0.00151266 0.018095 -0.00749361 0.00148748 
0.0236744 -0.00674947 0.00184317 0.0270641 -0.00680785 0.00153958 0.0312218 -0.00521473 0.00171929 
-0.0302149 -0.0034756 0.00149218 -0.000930257 -0.00268314 0.00147569 0.00626901 -0.0031813 0.00151034 
0.011112 -0.00298315 0.00181804 0.0174816 -0.00416501 0.00149685 0.020173 -0.0037633 0.0022961 
0.0229148 -0.00401592 0.00159126 0.025697 -0.00435101 0.00207968 0.0285069 -0.00434062 0.00156558 
-0.00496486 -0.000417077 0.00207133 -0.00214197 -0.000272422 0.00240636 0.00401473 -0.00142196 0.00152202 
0.00665813 -0.000352044 0.00150259 0.0139654 -0.000144799 0.00198847 0.0174944 -0.00131993 0.00147099 
0.022579 -0.00118119 0.00161442 0.0347275 -0.00196493 0.00149546 0.0246161 -0.0245157 0.0053285 
0.00332907 -0.0154994 0.00270638 0.0055318 -0.0173109 0.00404866 0.00213063 -0.0135077 0.00435698 
0.00628002 -0.0145559 0.00391704 0.00905114 -0.0128733 0.00384818 0.0145067 -0.013372 0.00377981 
0.000707654 -0.0110835 0.00385412 0.00394048 -0.0113573 0.00386131 0.00698559 -0.0110347 0.00454695 
0.0118343 -0.0123918 0.00358691 0.0100501 -0.0102184 0.00417063 0.0173529 -0.0100069 0.00260662 
0.0181381 -0.0122515 0.00418099 0.0212307 -0.0119969 0.00409748 0.0306541 -0.0100027 0.00277267 
-0.0252692 -0.00880051 0.00284835 -0.00549896 -0.00755733 0.00417805 -0.00270414 -0.00812586 0.00396146 
0.00254001 -0.00887352 0.00404078 0.0134954 -0.0090937 0.0043748 0.0159887 -0.00780881 0.00386418 
0.0188162 -0.00810009 0.00416621 0.0214163 -0.0091884 0.00456886 0.0242553 -0.00896952 0.00450661 
0.0270794 -0.00903487 0.00413619 -0.00747994 -0.00568756 0.00329473 -0.000390963 -0.0067603 0.00489068 
-0.00244469 -0.00531105 0.00352894 0.00277494 -0.00607929 0.00344714 0.00588357 -0.0068856 0.00416222 
0.0135727 -0.00626687 0.00404467 0.0191764 -0.00526965 0.00450394 0.0210816 -0.00680318 0.00302537 
0.0243178 -0.00611414 0.00455321 0.0271685 -0.0061867 0.00431544 0.029617 -0.00734559 0.00271691 
0.0319702 -0.00655708 0.00412115 -0.0325542 -0.00303099 0.00305489 -0.0306402 -0.00497177 0.00389297 
-0.00593843 -0.00340376 0.00405523 -0.00348858 -0.00277424 0.00272967 -0.00111451 -0.00253256 0.00430149 
0.000313404 -0.00468519 0.00307285 0.00171057 -0.00273717 0.00461049 0.00415926 -0.00356666 0.00340112 
0.0086 -0.00317624 0.00313383 0.0131803 -0.00343595 0.00372344 0.0158051 -0.0045166 0.00378171 
0.0180171 -0.00272241 0.00389142 0.0211939 -0.00329674 0.00492058 0.0239543 -0.0033171 0.00414526 
0.0267271 -0.00266175 0.00412808 0.0296825 -0.00484886 0.0041055 0.0305302 -0.00258411 0.00256173 
-0.00752832 -0.00157244 0.00254736 0.000624765 -0.000746674 0.00288559 0.00627946 -0.00173244 0.00396413 
0.0132131 -0.000214241 0.00475065 0.0165423 -0.000253989 0.00391369 0.0199908 -0.000965496 0.00279992 
0.028648 -0.000661821 0.00349157 0.0324167 -0.00118696 0.00419832 0.00401634 -0.0153492 0.0054668 
0.00524311 -0.0128144 0.00593134 0.00805583 -0.0142343 0.00614325 0.0108386 -0.0136192 0.00596347 
-0.00298977 -0.0103643 0.00733087 -0.000399282 -0.012247 0.00621454 0.00230583 -0.0113336 0.00619885 
0.0105337 -0.0109418 0.00687265 0.013274 -0.0121355 0.0060359 0.0173901 -0.012359 0.0069243 
0.0196551 -0.0108064 0.00614521 0.0243475 -0.0104326 0.00695739 -0.00523345 -0.00761772 0.00702628 
-0.000856049 -0.00948898 0.00563891 -0.00237793 -0.00758561 0.00711333 0.00161683 -0.00862949 0.00675042 
0.00497229 -0.00924543 0.00548802 0.00890813 -0.00783379 0.0052808 0.0115188 -0.00833103 0.00628901 
0.0149913 -0.0084397 0.00671018 0.0170437 -0.00994187 0.00543566 0.021752 -0.00932816 0.00739869 
0.024425 -0.00757702 0.00699701 -0.0044373 -0.00530347 0.00556386 0.00158853 -0.00577981 0.00670924 
0.00420508 -0.00518647 0.0057421 0.00647811 -0.00645333 0.00690838 0.00923994 -0.00604794 0.00749658 
0.0114585 -0.00550494 0.0058029 0.021679 -0.00600908 0.0056797 0.027197 -0.00682724 0.00709864 
-0.0084224 -0.00435269 0.0056173 -0.00606494 -0.00338411 0.00691377 -0.0036746 -0.00256064 0.00557014 
-0.00174037 -0.00457911 0.0061825 0.0031839 -0.00286166 0.00705165 0.00682907 -0.00432815 0.00504552 
0.00943197 -0.00348036 0.00585636 0.012491 -0.00291372 0.00642165 0.0145748 -0.00486196 0.00632392 
0.0191429 -0.00367646 0.00688124 0.0232165 -0.00391609 0.00683983 0.0259356 -0.00444335 0.00620871 
0.0287255 -0.00440965 0.00676033 -0.0102323 -0.000455335 0.00681483 -0.00769526 -0.00160726 0.0053964 
3.64966e-05 -0.00246514 0.0069129 0.00655274 -0.000259181 0.00638029 0.0151133 -0.00221143 0.00542658 
0.0176608 -0.00130442 0.00633783 0.0225434 -0.00119619 0.00629177 0.0271238 -0.00210297 0.00730727 
0.0300532 -0.00231231 0.00535346 0.00352981 -0.012953 0.00820901 0.00607265 -0.014047 0.00888246 
0.00883434 -0.0147685 0.0088486 0.0110726 -0.0129948 0.00875092 0.00296815 -0.0102005 0.00873016 
0.00543939 -0.0113538 0.00960176 0.00737558 -0.0118724 0.00757728 0.0117712 -0.0102655 0.00935015 
0.0166436 -0.0107798 0.00917266 0.0210544 -0.0119402 0.00834794 -0.0044929 -0.00905733 0.00937953 
5.44657e-05 -0.00902158 0.00911241 0.00607465 -0.00882831 0.00844339 0.00955304 -0.00873722 0.008349 
0.0130091 -0.00778637 0.00865361 0.015757 -0.00787663 0.00940365 0.0192746 -0.00971961 0.00875536 
-0.00729599 -0.00579679 0.00780466 -0.00315292 -0.00655023 0.0096523 -0.000633131 -0.0058078 0.0085034 
0.00385633 -0.00718043 0.00774843 0.00643211 -0.00589775 0.00968458 0.0198813 -0.00718597 0.00756742 
0.0223991 -0.00615036 0.00843064 -0.00965193 -0.00497402 0.00918492 -0.00866967 -0.0026348 0.00786957 
-0.0071155 -0.00388063 0.00991641 -0.003808 -0.00399343 0.00855579 -0.00058668 -0.00280747 0.00967397 
0.00355436 -0.00351414 0.00981234 0.00739699 -0.00391932 0.00782519 0.0101287 -0.00357634 0.00862432 
0.0124851 -0.00262043 0.00996251 0.0125968 -0.00498508 0.00837486 0.0165454 -0.0032916 0.008051 
0.0187295 -0.00265586 0.00977157 0.0255624 -0.00380639 0.00898039 -0.0104687 -0.00120329 0.00955742 
-0.00516776 -0.00147748 0.00883732 -0.00246841 -0.001552 0.0079426 0.00104089 -0.000617011 0.00885169 
0.00547936 -0.00190773 0.00844922 0.0143104 -0.00150337 0.00807711 0.0168656 -0.000632737 0.00900693 
0.0201131 -0.00114203 0.00778999 0.0245891 -0.00122015 0.00828409 0.0298335 -0.00220222 0.00820127 
0.00415815 -0.0135281 0.0109369 0.00817259 -0.0106106 0.0100077 0.0143124 -0.0100049 0.0106374 
0.000774903 -0.00936534 0.0118532 0.00240758 -0.00777641 0.0101316 0.00775358 -0.00800102 0.0110854 
0.0108234 -0.00796865 0.010777 0.0131681 -0.00807381 0.0124041 0.0177861 -0.00899848 0.0110765 
0.0217267 -0.00988097 0.0101966 -0.000719741 -0.00706911 0.0110568 0.00214569 -0.00576505 0.0121386 
0.0091927 -0.00565051 0.0103335 0.0140152 -0.00599239 0.0106413 0.0165911 -0.00651307 0.0117703 
0.0189964 -0.00655814 0.0102139 0.023076 -0.00745975 0.0108767 -0.00312574 -0.00423715 0.0113224 
-0.000361922 -0.00440525 0.0120218 0.00488053 -0.00497718 0.0118771 0.00730559 -0.00361361 0.0111413 
0.0101145 -0.00319447 0.0114535 0.0173851 -0.00378996 0.012019 0.0153199 -0.00250955 0.0105237 
0.0207279 -0.00481939 0.0116829 0.0233761 -0.00463123 0.0106258 0.00155948 -0.00235502 0.0114963 
0.00496331 -0.00213979 0.0118853 0.00743083 -0.000775326 0.0115361 0.0215357 -0.00247135 0.0102753 
0.0122298 -0.00171793 0.0126677 -0.00855467 -0.00871849 0.0279396 -0.00953699 0.00017537 0.00151795 
-0.00758543 0.00207585 0.00236861 -0.00358839 0.00201583 0.00149424 0.0163892 0.00130882 0.00153291 
0.0215125 0.00138899 0.00225471 0.0327658 0.000104059 0.00167321 0.0355392 0.000765953 0.0016723 
-0.0101546 0.00295761 0.00148683 -0.00565624 0.00399068 0.00148394 0.0160408 0.00405178 0.00225181 
0.0249199 0.00311662 0.00150468 0.0273409 0.004267 0.00248237 0.0336038 0.00275778 0.00232913 
-0.0119909 0.00730391 0.00199094 -0.00637914 0.00677498 0.00153831 0.00032167 0.00604371 0.00152105 
0.011334 0.00691048 0.00149544 0.0182475 0.00569947 0.00151092 0.0281092 0.00700402 0.00224997 
0.0308613 0.00624655 0.00231045 0.0345013 0.00541113 0.00176121 -0.00375064 0.00993589 0.00221659 
0.00114437 0.00877238 0.00152608 0.00888905 0.00848906 0.0014952 0.0114071 0.00975873 0.00158373 
0.0264208 0.00995231 0.00158048 0.0331348 0.00791718 0.00190327 -0.0120712 0.0101617 0.00205075 
-0.00989542 0.0119419 0.00150143 -0.00716004 0.011402 0.00216994 -0.00106131 0.0105866 0.00146883 
0.00349459 0.0102331 0.00220566 0.00619886 0.0109804 0.00155355 0.00904643 0.0113612 0.00160585 
0.0139325 0.0110329 0.00191003 0.0191854 0.0118495 0.00197037 0.0240279 0.0114351 0.00199389 
0.0292538 0.0102989 0.00146614 0.0310776 0.0124237 0.00188534 -0.0115618 0.014139 0.00226639 
-0.00885328 0.0146065 0.0014935 0.00416612 0.0129617 0.00185925 0.00950769 0.0141767 0.00184761 
[...]
POINT_DATA 1000
FIELD FieldData 7
id 1 1000 int
10 41 49 24 266 25 280 297 3 
18 263 22 12 290 285 53 27 302 
36 282 268 251 277 295 37 48 21 
9 141 83 29 124 197 17 2 16 
50 30 46 15 39 247 23 43 104 
38 33 7 19 274 309 191 107 235 
6 378 138 164 248 216 254 1 252 
52 262 504 298 256 535 301 520 56 
296 272 32 79 270 58 306 258 13 
45 294 264 260 259 253 28 287 278 
31 273 4 281 305 34 65 40 51 
304 205 54 47 303 308 44 8 5 
42 289 261 527 292 279 291 11 35 
434 67 14 554 689 26 267 551 558 
761 509 531 555 544 543 501 533 549 
524 525 508 548 552 526 518 257 521 
503 293 534 283 528 532 286 284 767 
507 506 276 255 510 265 275 300 269 
556 307 530 788 804 529 536 158 299 
288 547 807 511 515 810 773 766 769 
787 789 774 782 751 768 765 776 755 
516 797 546 502 757 522 540 542 538 
512 784 519 794 523 505 764 545 539 
557 517 513 790 752 792 806 541 648 
537 271 550 514 809 801 775 805 802 
781 796 808 777 795 786 803 778 798 
553 758 791 800 763 759 753 762 783 
793 780 754 772 785 779 756 799 770 
760 57 193 339 102 55 186 136 160 
357 199 161 131 242 218 363 89 429 
112 331 384 425 234 237 69 63 206 
130 433 455 227 229 118 243 123 116 
211 238 157 149 169 223 175 204 84 
62 155 203 165 80 178 194 183 472 
154 249 179 222 90 127 310 120 87 
332 208 117 226 86 182 110 64 430 
105 159 407 404 75 231 399 174 484 
740 184 77 60 103 195 367 219 168 
98 236 360 151 121 177 143 239 156 
487 431 392 496 190 139 749 401 111 
114 233 91 20 416 397 323 113 389 
482 72 66 685 393 214 499 209 68 
344 413 202 330 328 380 724 96 232 
359 423 94 212 314 445 119 460 419 
313 101 85 122 73 213 189 333 147 
99 92 317 128 210 246 145 220 241 
180 352 448 142 185 78 88 198 150 
61 100 408 166 428 415 490 93 311 
163 240 462 492 570 346 427 471 387 
146 59 221 115 201 385 465 483 394 
391 82 126 245 196 109 106 412 495 
379 347 435 140 436 167 97 364 376 
366 315 464 491 188 341 451 437 422 
463 418 402 390 447 349 170 162 225 
176 439 224 153 334 76 388 81 148 
459 125 603 329 640 565 370 320 95 
134 192 207 200 679 709 457 369 675 
132 477 383 596 688 698 449 486 468 
382 129 655 642 632 678 732 365 673 
900 666 629 452 450 454 338 362 730 
680 563 335 398 727 912 438 173 172 
135 355 250 358 625 475 626 707 498 
152 70 466 470 396 456 561 343 476 
340 350 692 473 215 405 181 342 622 
598 494 74 480 137 244 368 373 461 
646 411 377 714 337 420 348 230 371 
386 674 409 406 414 481 474 594 395 
336 444 741 467 319 575 400 722 620 
322 728 590 560 171 581 702 479 318 
485 750 618 432 356 668 500 615 592 
616 71 564 623 442 879 898 228 426 
381 372 638 458 922 326 353 735 325 
571 567 613 577 945 663 652 441 573 
572 876 974 601 695 469 927 981 992 
967 862 703 417 440 747 645 915 701 
566 847 890 936 744 579 670 569 593 
738 930 589 979 316 656 903 611 591 
726 664 607 453 493 619 718 653 410 
658 609 446 870 606 354 217 108 403 
489 682 654 745 650 955 715 562 361 
421 497 488 617 599 610 624 700 424 
710 723 568 634 748 321 614 327 312 
578 828 660 733 739 585 588 743 996 
933 375 672 691 697 816 586 600 587 
621 595 665 597 576 643 651 644 604 
559 818 868 712 716 602 628 639 662 
720 988 734 608 999 708 925 746 989 
631 686 681 848 690 635 811 696 641 
729 693 699 860 853 906 919 612 574 
932 909 704 877 929 958 771 959 896 
649 717 961 886 921 984 971 835 647 
633 711 659 731 817 869 840 837 942 
964 882 814 627 684 843 705 582 935 
871 895 856 855 669 637 924 812 917 
953 657 859 683 584 374 671 345 736 
630 914 580 842 954 823 867 719 742 
324 908 815 824 897 902 976 583 957 
977 713 938 949 478 881 963 836 721 
948 968 826 905 844 694 676 636 667 
834 737 970 857 918 838 725 845 993 
852 889 893 880 944 822 947 987 865 
965 875 687 885 854 829 819 661 940 
952 980 986 827 830 858 978 874 878 
962 351 821 913 133 861 946 850 939 
928 907 841 997 825 916 941 833 901 
144 891 931 911 937 985 990 926 975 
849 998 910 813 863 943 888 873 883 
677 866 951 872 969 983 920 706 605 
950 851 846 934 894 1000 960 884 982 
995 956 966 904 973 923 994 831 899 
972 887 820 832 187 991 892 839 443 
864 
type 1 1000 int
1 1 1 1 1 1 1 1 1 
1 1 1 1 1 1 1 1 1 
1 1 1 1 1 1 1 1 1 
1 1 1 1 1 1 1 1 1 
1 1 1 1 1 1 1 1 1 
1 1 1 1 1 1 1 1 1 
1 1 1 1 1 1 1 1 1 
1 1 1 1 1 1 1 1 1 
1 1 1 1 1 1 1 1 1 
1 1 1 1 1 1 1 1 1 
1 1 1 1 1 1 1 1 1 
1 1 1 1 1 1 1 1 1 
1 1 1 1 1 1 1 1 1 
1 1 1 1 1 1 1 1 1 
1 1 1 1 1 1 1 1 1 
1 1 1 1 1 1 1 1 1 
1 1 1 1 1 1 1 1 1 
1 1 1 1 1 1 1 1 1 
1 1 1 1 1 1 1 1 1 
1 1 1 1 1 1 1 1 1 
1 1 1 1 1 1 1 1 1 
1 1 1 1 1 1 1 1 1 
1 1 1 1 1 1 1 1 1 
1 1 1 1 1 1 1 1 1 
1 1 1 1 1 1 1 1 1 
1 1 1 1 1 1 1 1 1 
1 1 1 1 1 1 1 1 1 
1 1 1 1 1 1 1 1 1 
1 1 1 1 1 1 1 1 1 
1 1 1 1 1 1 1 1 1 
1 1 1 1 1 1 1 1 1 
1 1 1 1 1 1 1 1 1 
1 1 1 1 1 1 1 1 1 
1 1 1 1 1 1 1 1 1 
1 1 1 1 1 1 1 1 1 
1 1 1 1 1 1 1 1 1 
1 1 1 1 1 1 1 1 1 
1 1 1 1 1 1 1 1 1 
1 1 1 1 1 1 1 1 1 
1 1 1 1 1 1 1 1 1 
1 1 1 1 1 1 1 1 1 
1 1 1 1 1 1 1 1 1 
1 1 1 1 1 1 1 1 1 
1 1 1 1 1 1 1 1 1 
1 1 1 1 1 1 1 1 1 
1 1 1 1 1 1 1 1 1 
1 1 1 1 1 1 1 1 1 
1 1 1 1 1 1 1 1 1 
1 1 1 1 1 1 1 1 1 
1 1 1 1 1 1 1 1 1 
1 1 1 1 1 1 1 1 1 
1 1 1 1 1 1 1 1 1 
1 1 1 1 1 1 1 1 1 
1 1 1 1 1 1 1 1 1 
1 1 1 1 1 1 1 1 1 
1 1 1 1 1 1 1 1 1 
1 1 1 1 1 1 1 1 1 
1 1 1 1 1 1 1 1 1 
1 1 1 1 1 1 1 1 1 
1 1 1 1 1 1 1 1 1 
1 1 1 1 1 1 1 1 1 
1 1 1 1 1 1 1 1 1 
1 1 1 1 1 1 1 1 1 
1 1 1 1 1 1 1 1 1 
1 1 1 1 1 1 1 1 1 
1 1 1 1 1 1 1 1 1 
1 1 1 1 1 1 1 1 1 
1 1 1 1 1 1 1 1 1 
1 1 1 1 1 1 1 1 1 
1 1 1 1 1 1 1 1 1 
1 1 1 1 1 1 1 1 1 
1 1 1 1 1 1 1 1 1 
1 1 1 1 1 1 1 1 1 
1 1 1 1 1 1 1 1 1 
1 1 1 1 1 1 1 1 1 
1 1 1 1 1 1 1 1 1 
1 1 1 1 1 1 1 1 1 
1 1 1 1 1 1 1 1 1 
1 1 1 1 1 1 1 1 1 
1 1 1 1 1 1 1 1 1 
1 1 1 1 1 1 1 1 1 
1 1 1 1 1 1 1 1 1 
1 1 1 1 1 1 1 1 1 
1 1 1 1 1 1 1 1 1 
1 1 1 1 1 1 1 1 1 
1 1 1 1 1 1 1 1 1 
1 1 1 1 1 1 1 1 1 
1 1 1 1 1 1 1 1 1 
1 1 1 1 1 1 1 1 1 
1 1 1 1 1 1 1 1 1 
1 1 1 1 1 1 1 1 1 
1 1 1 1 1 1 1 1 1 
1 1 1 1 1 1 1 1 1 
1 1 1 1 1 1 1 1 1 
1 1 1 1 1 1 1 1 1 
1 1 1 1 1 1 1 1 1 
1 1 1 1 1 1 1 1 1 
1 1 1 1 1 1 1 1 1 
1 1 1 1 1 1 1 1 1 
1 1 1 1 1 1 1 1 1 
1 1 1 1 1 1 1 1 1 
1 1 1 1 1 1 1 1 1 
1 1 1 1 1 1 1 1 1 
1 1 1 1 1 1 1 1 1 
1 1 1 1 1 1 1 1 1 
1 1 1 1 1 1 1 1 1 
1 1 1 1 1 1 1 1 1 
1 1 1 1 1 1 1 1 1 
1 1 1 1 1 1 1 1 1 
1 1 1 1 1 1 1 1 1 
1 1 1 1 1 1 1 1 1 
1 
i 3 1000 int
0 0 0 0 0 0 0 0 0 
0 0 0 0 0 0 0 0 0 
0 0 0 0 0 0 0 0 0 
0 0 0 0 0 0 0 0 0 
0 0 0 0 0 0 0 0 0 
0 0 0 0 0 0 0 0 0 
0 0 0 0 0 0 0 0 0 
0 0 0 0 0 0 0 0 0 
0 0 0 0 0 0 0 0 0 
0 0 0 0 0 0 0 0 0 
0 0 0 0 0 0 0 0 0 
0 0 0 0 0 0 0 0 0 
0 0 0 0 0 0 0 0 0 
0 0 0 0 0 0 0 0 0 
0 0 0 0 0 0 0 0 0 
0 0 0 0 0 0 0 0 0 
0 0 0 0 0 0 0 0 0 
0 0 0 0 0 0 0 0 0 
0 0 0 0 0 0 0 0 0 
0 0 0 0 0 0 0 0 0 
0 0 0 0 0 0 0 0 0 
0 0 0 0 0 0 0 0 0 
0 0 0 0 0 0 0 0 0 
0 0 0 0 0 0 0 0 0 
0 0 0 0 0 0 0 0 0 
0 0 0 0 0 0 0 0 0 
0 0 0 0 0 0 0 0 0 
0 0 0 0 0 0 0 0 0 
0 0 0 0 0 0 0 0 0 
0 0 0 0 0 0 0 0 0 
0 0 0 0 0 0 0 0 0 
0 0 0 0 0 0 0 0 0 
0 0 0 0 0 0 0 0 0 
0 0 0 0 0 0 0 0 0 
0 0 0 0 0 0 0 0 0 
0 0 0 0 0 0 0 0 0 
0 0 0 0 0 0 0 0 0 
0 0 0 0 0 0 0 0 0 
0 0 0 0 0 0 0 0 0 
0 0 0 0 0 0 0 0 0 
0 0 0 0 0 0 0 0 0 
0 0 0 0 0 0 0 0 0 
0 0 0 0 0 0 0 0 0 
0 0 0 0 0 0 0 0 0 
0 0 0 0 0 0 0 0 0 
0 0 0 0 0 0 0 0 0 
0 0 0 0 0 0 0 0 0 
0 0 0 0 0 0 0 0 0 
0 0 0 0 0 0 0 0 0 
0 0 0 0 0 0 0 0 0 
0 0 0 0 0 0 0 0 0 
0 0 0 0 0 0 0 0 0 
0 0 0 0 0 0 0 0 0 
0 0 0 0 0 0 0 0 0 
0 0 0 0 0 0 0 0 0 
0 0 0 0 0 0 0 0 0 
0 0 0 0 0 0 0 0 0 
0 0 0 0 0 0 0 0 0 
0 0 0 0 0 0 0 0 0 
0 0 0 0 0 0 0 0 0 
0 0 0 0 0 0 0 0 0 
0 0 0 0 0 0 0 0 0 
0 0 0 0 0 0 0 0 0 
0 0 0 0 0 0 0 0 0 
0 0 0 0 0 0 0 0 0 
0 0 0 0 0 0 0 0 0 
0 0 0 0 0 0 0 0 0 
0 0 0 0 0 0 0 0 0 
0 0 0 0 0 0 0 0 0 
0 0 0 0 0 0 0 0 0 
0 0 0 0 0 0 0 0 0 
0 0 0 0 0 0 0 0 0 
0 0 0 0 0 0 0 0 0 
0 0 0 0 0 0 0 0 0 
0 0 0 0 0 0 0 0 0 
0 0 0 0 0 0 0 0 0 
0 0 0 0 0 0 0 0 0 
0 0 0 0 0 0 0 0 0 
0 0 0 0 0 0 0 0 0 
0 0 0 0 0 0 0 0 0 
0 0 0 0 0 0 0 0 0 
0 0 0 0 0 0 0 0 0 
0 0 0 0 0 0 0 0 0 
0 0 0 0 0 0 0 0 0 
0 0 0 0 0 0 0 0 0 
0 0 0 0 0 0 0 0 0 
0 0 0 0 0 0 0 0 0 
0 0 0 0 0 0 0 0 0 
0 0 0 0 0 0 0 0 0 
0 0 0 0 0 0 0 0 0 
0 0 0 0 0 0 0 0 0 
0 0 0 0 0 0 0 0 0 
0 0 0 0 0 0 0 0 0 
0 0 0 0 0 0 0 0 0 
0 0 0 0 0 0 0 0 0 
0 0 0 0 0 0 0 0 0 
0 0 0 0 0 0 0 0 0 
0 0 0 0 0 0 0 0 0 
0 0 0 0 0 0 0 0 0 
0 0 0 0 0 0 0 0 0 
0 0 0 0 0 0 0 0 0 
0 0 0 0 0 0 0 0 0 
0 0 0 0 0 0 0 0 0 
0 0 0 0 0 0 0 0 0 
0 0 0 0 0 0 0 0 0 
0 0 0 0 0 0 0 0 0 
0 0 0 0 0 0 0 0 0 
0 0 0 0 0 0 0 0 0 
0 0 0 0 0 0 0 0 0 
0 0 0 0 0 0 0 0 0 
0 0 0 0 0 0 0 0 0 
0 0 0 0 0 0 0 0 0 
0 0 0 0 0 0 0 0 0 
0 0 0 0 0 0 0 0 0 
0 0 0 0 0 0 0 0 0 
0 0 0 0 0 0 0 0 0 
0 0 0 0 0 0 0 0 0 
0 0 0 0 0 0 0 0 0 
0 0 0 0 0 0 0 0 0 
0 0 0 0 0 0 0 0 0 
0 0 0 0 0 0 0 0 0 
0 0 0 0 0 0 0 0 0 
0 0 0 0 0 0 0 0 0 
0 0 0 0 0 0 0 0 0 
0 0 0 0 0 0 0 0 0 
0 0 0 0 0 0 0 0 0 
0 0 0 0 0 0 0 0 0 
0 0 0 0 0 0 0 0 0 
0 0 0 0 0 0 0 0 0 
0 0 0 0 0 0 0 0 0 
0 0 0 0 0 0 0 0 0 
0 0 0 0 0 0 0 0 0 
0 0 0 0 0 0 0 0 0 
0 0 0 0 0 0 0 0 0 
0 0 0 0 0 0 0 0 0 
0 0 0 0 0 0 0 0 0 
0 0 0 0 0 0 0 0 0 
0 0 0 0 0 0 0 0 0 
0 0 0 0 0 0 0 0 0 
0 0 0 0 0 0 0 0 0 
0 0 0 0 0 0 0 0 0 
0 0 0 0 0 0 0 0 0 
0 0 0 0 0 0 0 0 0 
0 0 0 0 0 0 0 0 0 
0 0 0 0 0 0 0 0 0 
0 0 0 0 0 0 0 0 0 
0 0 0 0 0 0 0 0 0 
0 0 0 0 0 0 0 0 0 
0 0 0 0 0 0 0 0 0 
0 0 0 0 0 0 0 0 0 
0 0 0 0 0 0 0 0 0 
0 0 0 0 0 0 0 0 0 
0 0 0 0 0 0 0 0 0 
0 0 0 0 0 0 0 0 0 
0 0 0 0 0 0 0 0 0 
0 0 0 0 0 0 0 0 0 
0 0 0 0 0 0 0 0 0 
0 0 0 0 0 0 0 0 0 
0 0 0 0 0 0 0 0 0 
0 0 0 0 0 0 0 0 0 
0 0 0 0 0 0 0 0 0 
0 0 0 0 0 0 0 0 0 
0 0 0 0 0 0 0 0 0 
0 0 0 0 0 0 0 0 0 
0 0 0 0 0 0 0 0 0 
0 0 0 0 0 0 0 0 0 
0 0 0 0 0 0 0 0 0 
0 0 0 0 0 0 0 0 0 
0 0 0 0 0 0 0 0 0 
0 0 0 0 0 0 0 0 0 
0 0 0 0 0 0 0 0 0 
0 0 0 0 0 0 0 0 0 
0 0 0 0 0 0 0 0 0 
0 0 0 0 0 0 0 0 0 
0 0 0 0 0 0 0 0 0 
0 0 0 0 0 0 0 0 0 
0 0 0 0 0 0 0 0 0 
0 0 0 0 0 0 0 0 0 
0 0 0 0 0 0 0 0 0 
0 0 0 0 0 0 0 0 0 
0 0 0 0 0 0 0 0 0 
0 0 0 0 0 0 0 0 0 
0 0 0 0 0 0 0 0 0 
0 0 0 0 0 0 0 0 0 
0 0 0 0 0 0 0 0 0 
0 0 0 0 0 0 0 0 0 
0 0 0 0 0 0 0 0 0 
0 0 0 0 0 0 0 0 0 
0 0 0 0 0 0 0 0 0 
0 0 0 0 0 0 0 0 0 
0 0 0 0 0 0 0 0 0 
0 0 0 0 0 0 0 0 0 
0 0 0 0 0 0 0 0 0 
0 0 0 0 0 0 0 0 0 
0 0 0 0 0 0 0 0 0 
0 0 0 0 0 0 0 0 0 
0 0 0 0 0 0 0 0 0 
0 0 0 0 0 0 0 0 0 
0 0 0 0 0 0 0 0 0 
0 0 0 0 0 0 0 0 0 
0 0 0 0 0 0 0 0 0 
0 0 0 0 0 0 0 0 0 
0 0 0 0 0 0 0 0 0 
0 0 0 0 0 0 0 0 0 
0 0 0 0 0 0 0 0 0 
0 0 0 0 0 0 0 0 0 
0 0 0 0 0 0 0 0 0 
0 0 0 0 0 0 0 0 0 
0 0 0 0 0 0 0 0 0 
0 0 0 0 0 0 0 0 0 
0 0 0 0 0 0 0 0 0 
0 0 0 0 0 0 0 0 0 
0 0 0 0 0 0 0 0 0 
0 0 0 0 0 0 0 0 0 
0 0 0 0 0 0 0 0 0 
0 0 0 0 0 0 0 0 0 
0 0 0 0 0 0 0 0 0 
0 0 0 0 0 0 0 0 0 
0 0 0 0 0 0 0 0 0 
0 0 0 0 0 0 0 0 0 
0 0 0 0 0 0 0 0 0 
0 0 0 0 0 0 0 0 0 
0 0 0 0 0 0 0 0 0 
0 0 0 0 0 0 0 0 0 
0 0 0 0 0 0 0 0 0 
0 0 0 0 0 0 0 0 0 
0 0 0 0 0 0 0 0 0 
0 0 0 0 0 0 0 0 0 
0 0 0 0 0 0 0 0 0 
0 0 0 0 0 0 0 0 0 
0 0 0 0 0 0 0 0 0 
0 0 0 0 0 0 0 0 0 
0 0 0 0 0 0 0 0 0 
0 0 0 0 0 0 0 0 0 
0 0 0 0 0 0 0 0 0 
0 0 0 0 0 0 0 0 0 
0 0 0 0 0 0 0 0 0 
0 0 0 0 0 0 0 0 0 
0 0 0 0 0 0 0 0 0 
0 0 0 0 0 0 0 0 0 
0 0 0 0 0 0 0 0 0 
0 0 0 0 0 0 0 0 0 
0 0 0 0 0 0 0 0 0 
0 0 0 0 0 0 0 0 0 
0 0 0 0 0 0 0 0 0 
0 0 0 0 0 0 0 0 0 
0 0 0 0 0 0 0 0 0 
0 0 0 0 0 0 0 0 0 
0 0 0 0 0 0 0 0 0 
0 0 0 0 0 0 0 0 0 
0 0 0 0 0 0 0 0 0 
0 0 0 0 0 0 0 0 0 
0 0 0 0 0 0 0 0 0 
0 0 0 0 0 0 0 0 0 
0 0 0 0 0 0 0 0 0 
0 0 0 0 0 0 0 0 0 
0 0 0 0 0 0 0 0 0 
0 0 0 0 0 0 0 0 0 
0 0 0 0 0 0 0 0 0 
0 0 0 0 0 0 0 0 0 
0 0 0 0 0 0 0 0 0 
0 0 0 0 0 0 0 0 0 
0 0 0 0 0 0 0 0 0 
0 0 0 0 0 0 0 0 0 
0 0 0 0 0 0 0 0 0 
0 0 0 0 0 0 0 0 0 
0 0 0 0 0 0 0 0 0 
0 0 0 0 0 0 0 0 0 
0 0 0 0 0 0 0 0 0 
0 0 0 0 0 0 0 0 0 
0 0 0 0 0 0 0 0 0 
0 0 0 0 0 0 0 0 0 
0 0 0 0 0 0 0 0 0 
0 0 0 0 0 0 0 0 0 
0 0 0 0 0 0 0 0 0 
0 0 0 0 0 0 0 0 0 
0 0 0 0 0 0 0 0 0 
0 0 0 0 0 0 0 0 0 
0 0 0 0 0 0 0 0 0 
0 0 0 0 0 0 0 0 0 
0 0 0 0 0 0 0 0 0 
0 0 0 0 0 0 0 0 0 
0 0 0 0 0 0 0 0 0 
0 0 0 0 0 0 0 0 0 
0 0 0 0 0 0 0 0 0 
0 0 0 0 0 0 0 0 0 
0 0 0 0 0 0 0 0 0 
0 0 0 0 0 0 0 0 0 
0 0 0 0 0 0 0 0 0 
0 0 0 0 0 0 0 0 0 
0 0 0 0 0 0 0 0 0 
0 0 0 0 0 0 0 0 0 
0 0 0 0 0 0 0 0 0 
0 0 0 0 0 0 0 0 0 
0 0 0 0 0 0 0 0 0 
0 0 0 0 0 0 0 0 0 
0 0 0 0 0 0 0 0 0 
0 0 0 0 0 0 0 0 0 
0 0 0 0 0 0 0 0 0 
0 0 0 0 0 0 0 0 0 
0 0 0 0 0 0 0 0 0 
0 0 0 0 0 0 0 0 0 
0 0 0 0 0 0 0 0 0 
0 0 0 0 0 0 0 0 0 
0 0 0 0 0 0 0 0 0 
0 0 0 0 0 0 0 0 0 
0 0 0 0 0 0 0 0 0 
0 0 0 0 0 0 0 0 0 
0 0 0 0 0 0 0 0 0 
0 0 0 0 0 0 0 0 0 
0 0 0 0 0 0 0 0 0 
0 0 0 0 0 0 0 0 0 
0 0 0 0 0 0 0 0 0 
0 0 0 0 0 0 0 0 0 
0 0 0 0 0 0 0 0 0 
0 0 0 0 0 0 0 0 0 
0 0 0 0 0 0 0 0 0 
0 0 0 0 0 0 0 0 0 
0 0 0 0 0 0 0 0 0 
0 0 0 0 0 0 0 0 0 
0 0 0 0 0 0 0 0 0 
0 0 0 0 0 0 0 0 0 
0 0 0 0 0 0 0 0 0 
0 0 0 0 0 0 0 0 0 
0 0 0 0 0 0 0 0 0 
0 0 0 0 0 0 0 0 0 
0 0 0 0 0 0 0 0 0 
0 0 0 0 0 0 0 0 0 
0 0 0 0 0 0 0 0 0 
0 0 0 0 0 0 0 0 0 
0 0 0 0 0 0 0 0 0 
0 0 0 0 0 0 0 0 0 
0 0 0 0 0 0 0 0 0 
0 0 0 
v 3 1000 double
0.0019706883621 0.0046516190214 -0.10626084357 0.0056046655662 -0.0022455949054 -0.002101204041 0.0069325425572 0.0012651750588 -0.0045844768494 
0.011350967481 -0.001030248146 0.0081633006095 0.0041199514574 -0.0041895499307 -0.0035219625843 0.0034840584145 -0.00092287813894 0.0015561791272 
0.0010694493065 0.0046754467889 -0.0016637975708 0.00067148791646 0.0038928931563 -0.0013833228061 0.00060766250886 0.005792752691 -0.00083526748154 
-0.011230642587 0.0128639623 4.3802161923e-05 -0.0017595842025 -0.0030067271555 0.00038739666584 0.00045141805599 -0.0026169113241 0.0025568605667 
0.00097013378326 -0.00025528402139 0.0050196222004 0.0011615654319 0.0013430976011 0.001077051462 0.00082385215104 0.0017458908905 -0.0015395220174 
-0.0010965121196 0.003928432621 -0.0011294713556 -0.0029646699926 0.0066878493324 -0.002373821595 0.00068201300205 -0.0015112454326 0.002310931872 
0.0030378238571 -0.0038218132426 0.0050644052799 -0.0051759535085 0.0035643344392 0.0037074499802 -0.0015725853511 -0.0029613895941 0.001153030475 
-0.00079937448495 -0.0018518708394 0.0077292836598 -0.00053219465931 0.00059620502273 0.0080730631804 0.0013674026237 0.0014379337497 -0.0004308067453 
0.00068969451963 0.0026205583305 2.2367018374e-05 -0.0010848095671 0.0052831222968 -0.0012684677042 -0.0043729654593 0.0032066879228 -0.0028037096791 
-0.0052076275013 -0.0031426433466 0.00083715945366 -0.0081247869099 -0.0032195206 -0.01390081872 0.10193350781 0.053621333804 -0.04641621056 
0.10460839104 -0.007776450948 -0.025006805873 0.12604540287 -0.12533717002 -0.028250172468 0.13234421355 -0.26085475924 -0.045064892552 
-0.0016370638902 -0.0030380271215 0.0013505654228 -0.0016752788951 0.0017710989761 0.0022469347155 0.00018066658123 -0.0014838055968 0.0073449210029 
-0.00018217608497 0.0016161184318 0.00065009829385 5.4885580933e-05 0.0035140484801 1.7191472974e-05 -0.00066921647514 0.0039026295018 -0.00084799782276 
-0.0013166495562 0.0061585261898 -0.00037095766217 -0.003276440717 0.00053922134264 -0.0030321157587 -0.0044851117107 -0.0010671145124 -0.0073236074045 
0.15853573218 0.01083481565 0.00036420327567 0.00062755786349 -0.0021480093897 -0.004436843019 0.0013121014981 -0.0010508361982 -0.0004164827426 
-0.00063407150467 0.00166516127 0.0023127461427 0.00072798735094 0.003741768491 0.0010221752797 -0.00068029286148 0.0037553846219 0.0039703280332 
-0.0021937326626 0.0050450782642 0.0027638998884 -0.0013335071407 0.0036790539483 0.00012016011076 -0.0026276165327 0.00067235663441 -0.00068033955298 
0.0024757430226 -0.0015872158886 -0.0092427485455 0.0024573433144 0.00040231340778 -0.0098739497692 0.0018322403911 -0.0017349049624 -0.0024857522062 
0.001093135642 -0.00098961271775 -0.0027170088342 -0.0058706626183 0.009314999247 -0.0015532920711 -0.0002760888192 0.0030251252833 0.00052130180187 
-0.0065878046415 0.0037463117794 -0.00086858785669 0.012371681877 0.0033796253939 0.0037600297158 0.38392835763 -0.16010380542 0.35180019291 
0.0065211069159 -0.0045135912561 -0.0067786733781 0.00098556817266 -0.0069777648434 -0.0097468341965 -0.00079410310172 -0.0087445112922 -0.0038788411275 
0.0026234390989 -0.0042998611976 -0.00025886671976 -0.00068033748002 0.0015567681402 -0.0037582942558 0.0023689236166 0.0044997053484 0.00096585941588 
-0.0035911258728 -0.0029219612415 0.00086399852062 -0.0022441856842 -0.0049957591226 -0.00010638856358 -0.0030639026747 -0.00093387716918 0.002284065646 
-0.00043041609328 -0.0005988017086 -0.0020564551175 0.0020533238429 -0.00015997499209 -0.00021169727778 -0.00014051445581 0.0042817672019 -0.00023118095979 
-0.00060194780884 0.0046441256473 -0.00016602768852 -0.00063939844645 0.0056641205371 -0.0024139974344 -0.0049724606914 0.0024998755137 0.0048329297112 
0.050266091496 -0.17256873398 -0.0090863834094 0.00054952646124 -0.0014536578868 0.0036725825431 0.00058040146054 -0.0016614900568 0.00055120659681 
-0.001209684794 -0.0046248062417 0.001652811795 0.0024326440814 0.0015595026433 -0.00039560858984 0.00065550027473 0.0037336671337 -0.00041270920034 
-0.00034254501194 0.0043806304439 -0.00066318483482 -0.001251642898 0.0048986456992 -0.0015905350911 -0.0032041292844 0.0038134189011 -0.0021921088952 
-0.0049609510397 0.0018109986101 -0.0028818711584 0.0022462643337 -0.0024054524432 0.0034841048427 -0.0011459635712 -0.00040651130511 -0.00093485101973 
-0.0016768885519 -1.2356267953e-05 0.0011477628161 0.00041977507208 -0.0036017731612 0.00067004621277 -0.0021712750916 -0.0053918014729 0.0021878613496 
0.00085821744384 0.0011792563222 2.9443371398e-05 -0.0011303748101 0.003354362167 0.0015318311828 -0.001487452651 0.0051199716499 -0.00030481842236 
-0.0015942020652 0.0022729179052 -0.00053725160935 -0.0021048859784 -0.0012333883028 -0.0022541519076 -0.0031276244764 -0.0016332121025 -0.0056296016129 
0.0016981854182 -0.0045157100137 -0.012408607075 0.16696226191 0.057678205208 -0.019181260049 0.10687159182 -0.0027367573138 -0.030344367795 
0.0012112678411 0.0016955309853 0.0017358981029 0.00086575769987 -0.0013059678748 -0.0024737185083 0.0013664576477 -0.00068563361233 -0.0046070880945 
-0.0007723730536 -0.001026704427 -0.001701152207 0.0013089776793 -0.0014009991179 -0.0046631425416 0.0015573522119 -0.0018171929428 -0.00098954171668 
0.00043117090955 -1.4950503278e-05 -0.00077936383574 -0.0022659697202 6.4455995359e-05 0.00038887830884 -0.00052819817674 0.0029731227402 -9.7887803511e-05 
-0.001846832418 0.0034603382919 0.00099846979097 -0.0018771562753 0.0035193959946 0.0028508548134 0.00028192496297 0.0041220819209 0.0014397595177 
0.0021499988507 -9.1118382979e-05 0.0009105628167 -0.000295917491 -0.0039036357765 -0.0031256531926 0.001173621991 -0.0019373406225 0.00067990527926 
0.0015667402122 0.0016120836688 -0.0020718332796 0.0037289557031 -0.0021418950931 -0.012567572728 0.0022168979941 -0.00016319953177 -0.0015887760419 
-0.0016717605981 0.0044517323852 0.00083058498274 -0.0012746107348 0.0022767069668 -0.00032961766262 -0.0008531386516 0.0024165006486 0.008741686699 
0.0045767117239 -0.002489579338 0.0016016173375 0.0044361090541 -0.011009480852 0.008924914477 4.1689863959e-05 -0.0099130839783 -0.0055632933027 
-0.001974302855 -0.0061082862838 -0.0017721773974 0.00032019473365 -0.0013158542119 -0.0013608150314 -0.0019805685128 -0.0021822139533 -0.0037482043051 
-0.0046890269676 0.0022424085156 -0.012907208958 -0.0028732288803 0.0030401201312 0.011084757821 -0.0041095229641 -0.0057180868579 -0.00031681297592 
0.0025540474882 -0.0030183369611 -0.0022851918023 -0.0046769364658 0.0025023180422 -0.0016081779401 0.00087310908038 0.0026798148661 -0.0011816245682 
-0.00033954835697 0.0040770539956 -0.0010923007675 -0.0020908193631 0.0020429167064 -0.0028506107663 8.6518610832e-05 0.0062010810713 0.0094398393709 
-0.00015339967224 0.0011959100728 -0.001616165917 0.001187947931 8.0592963676e-05 0.0032350576075 4.2649152361e-05 -0.00056136147316 -0.0017592471427 
-0.0048707166633 -0.0050979032125 0.0054663266403 0.0015933648212 -0.0036757497552 0.0013198618335 0.0019114314518 -0.0010314223712 -0.0010131049852 
0.00086639194909 0.0027492706624 0.0012772842934 0.00063162248088 0.0053445439652 -6.9422044867e-05 -0.00028227232409 0.0028609906042 -0.00058534299816 
-0.00096889616004 0.0013324143781 -0.0010090329387 0.00081140984916 2.3890732208e-05 0.0019319087939 0.003386673168 -0.0024144520569 0.0020140397358 