# vtk DataFile Version 4.1
Generated by LIGGGHTS
ASCII
DATASET POLYDATA
POINTS 1000 float
0.000481723 -0.0200769 0.00198956 -0.00190769 -0.0185239 0.00177875 0.00587719 -0.0160363 0.00150397 
0.00209312 -0.0132597 0.00150017 0.0049413 -0.0133434 0.00169483 0.00774349 -0.0138866 0.00153404 
0.0164979 -0.0126455 0.00187748 0.0219205 -0.0129018 0.00148548 -0.00506465 -0.0122638 0.0015071 
0.00240071 -0.0104405 0.00165095 0.00526163 -0.0104884 0.00149714 0.00812535 -0.0104277 0.00151897 
0.0109748 -0.0103633 0.001483 0.0135803 -0.0115239 0.00151226 0.0192363 -0.0119265 0.00157212 
0.0228773 -0.0103801 0.00242604 -0.0402195 -0.00805897 0.00160742 -0.00640652 -0.00761445 0.00147544 
-0.00455228 -0.00958283 0.00234613 -0.000398555 -0.00990175 0.0015179 0.00382397 -0.00799455 0.00160157 
0.00666676 -0.00799699 0.0016395 0.00950908 -0.00790699 0.00150276 0.0123189 -0.00791284 0.0020649 
0.0149152 -0.00901535 0.00150847 0.0202616 -0.00930562 0.00196109 0.02535 -0.00906681 0.00187253 
0.0281531 -0.00946701 0.00152819 0.0321993 -0.00789478 0.00161121 -0.0394666 -0.00529815 0.00150484 
-0.0374835 -0.00730656 0.00188127 -0.00361214 -0.00701221 0.00151772 -0.000806618 -0.00714034 0.00206991 
0.00799273 -0.00547472 0.00152357 0.0129089 -0.00517897 0.0014859 0.0155399 -0.00624593 0.00150994 
0.0181006 -0.00750067 0.00148549 0.0236805 -0.00675712 0.00184276 0.0270712 -0.00681433 0.00154286 
0.0312256 -0.0052138 0.00172202 -0.000922954 -0.00271292 0.00147584 0.00626586 -0.0031951 0.00150665 
0.0111134 -0.00299235 0.00181246 0.0174864 -0.00417228 0.0014938 0.0201772 -0.00377124 0.00229421 
0.0229193 -0.00402279 0.00159083 0.0257007 -0.0043585 0.0020807 0.0285095 -0.00434507 0.0015683 
-0.00495732 -0.000449801 0.00207364 -0.0021347 -0.000302022 0.00240428 0.00400757 -0.00143893 0.00152411 
0.00664902 -0.000364793 0.00149669 0.0139772 -0.000155764 0.00198341 0.0175035 -0.00132559 0.00146859 
0.0225811 -0.00118578 0.00161864 0.0347114 -0.00197502 0.00153882 0.000470264 -0.0173539 0.0028423 
0.00335003 -0.0155131 0.00269288 0.0055593 -0.0173264 0.00403482 0.00214582 -0.0135275 0.00434668 
0.00629607 -0.0145673 0.00390724 0.00906369 -0.0128811 0.00384543 0.0145163 -0.0133768 0.00379222 
0.000719747 -0.0111044 0.0038479 0.00395258 -0.0113742 0.00385708 0.00699577 -0.0110473 0.00454644 
0.0118461 -0.0123948 0.00358963 0.0100551 -0.0102265 0.0041719 0.017358 -0.0100157 0.00260366 
0.0181455 -0.0122589 0.00417961 0.0212374 -0.0120041 0.00409775 -0.00549201 -0.00759292 0.00417727 
-0.00269651 -0.00815501 0.00395728 0.0025501 -0.00889265 0.00403885 0.0135003 -0.00910099 0.0043717 
0.0159934 -0.00781666 0.00386112 0.0188206 -0.00810823 0.00416346 0.021421 -0.00919517 0.00456766 
0.0242611 -0.00897546 0.00450741 0.0270855 -0.00904007 0.00414081 0.0306666 -0.0100029 0.00277763 
-0.0418627 -0.00607618 0.00283219 -0.0393323 -0.00673358 0.00398031 -0.00747696 -0.00572478 0.00329686 
-0.000385353 -0.00678828 0.00488857 -0.00243908 -0.00534051 0.00352705 0.00278094 -0.00609958 0.00344774 
0.005889 -0.00690034 0.0041608 0.0135767 -0.00627391 0.00404147 0.0191797 -0.00527851 0.00450081 
0.0210868 -0.00681158 0.00302395 0.0243221 -0.00612013 0.00455359 0.0271731 -0.00619086 0.00431862 
0.0296246 -0.00734729 0.00272137 0.0319768 -0.00655505 0.00412429 -0.00593319 -0.0034387 0.00405516 
-0.00348252 -0.0028049 0.00272915 -0.00111104 -0.00256252 0.00430108 0.000318959 -0.00471229 0.00307277 
0.00171273 -0.0027605 0.00461061 0.00415945 -0.00358388 0.00340132 0.00859982 -0.00318639 0.00312787 
0.0131826 -0.00344283 0.00371857 0.0158084 -0.00452272 0.00377769 0.0180211 -0.00273032 0.00388803 
0.0211958 -0.00330488 0.00491848 0.0239567 -0.00332445 0.00414422 0.0267254 -0.00266396 0.00412697 
0.0296859 -0.00484978 0.00410853 0.0305268 -0.00258282 0.00256274 -0.00751914 -0.00160835 0.00254837 
0.00063064 -0.000778078 0.00288337 0.00627886 -0.00174537 0.00396005 0.0132192 -0.000218618 0.00474315 
0.0165495 -0.000259836 0.00390848 0.0199945 -0.000975966 0.00280495 0.0286425 -0.0006613 0.00349046 
0.032411 -0.00118193 0.00419736 -0.0216883 -0.0153471 0.00147763 0.00403292 -0.0153702 0.00545296 
0.00525451 -0.012833 0.0059255 0.00806799 -0.0142472 0.00613646 0.0108491 -0.0136266 0.00596218 
-0.00298088 -0.0103942 0.00732363 -0.000386633 -0.0122724 0.00620638 0.00231656 -0.0113556 0.00619259 
0.0105394 -0.0109509 0.00687218 0.0132781 -0.0121343 0.0060433 0.0173945 -0.0123654 0.00692199 
0.0196597 -0.010813 0.00614369 0.0243512 -0.0104389 0.00695703 -0.0052255 -0.00765089 0.00702473 
-0.000846915 -0.00951496 0.00563406 -0.00237078 -0.0076161 0.00711327 0.00162552 -0.00865214 0.00674673 
0.00498029 -0.00926233 0.00548729 0.0089115 -0.00784397 0.00528226 0.0115239 -0.0083394 0.00628751 
0.0170482 -0.00995014 0.00543266 0.0149955 -0.0084483 0.00670672 0.0217558 -0.00933435 0.00739778 
0.0244279 -0.00758224 0.00699773 -0.0044312 -0.00533652 0.0055623 0.00159255 -0.00580421 0.00671028 
0.00420889 -0.00520317 0.00574217 0.00648462 -0.00646604 0.00690714 0.0114623 -0.0055122 0.00579892 
0.0216821 -0.00601629 0.0056786 0.0271997 -0.00682835 0.00710297 -0.00841701 -0.00438811 0.00561822 
-0.00605989 -0.00341864 0.00691311 -0.0036703 -0.00259353 0.00556921 -0.00173553 -0.00461063 0.00618127 
0.00318707 -0.00287619 0.00705104 0.00683141 -0.00434112 0.00504234 0.00943374 -0.00348956 0.00585085 
0.012494 -0.00291882 0.00641538 0.0145783 -0.00486665 0.00631944 0.0191443 -0.00368573 0.00687769 
0.0232185 -0.00392152 0.00683794 0.0259376 -0.00444578 0.00620925 0.0287271 -0.00440934 0.00676351 
-0.0132238 -0.000302006 0.00485119 -0.0102159 -0.000482196 0.00681357 -0.00768922 -0.00164367 0.00539631 
3.90381e-05 -0.00249027 0.00691122 0.00655583 -0.000271559 0.00637397 0.0151171 -0.00221682 0.00542055 
0.0176647 -0.00131192 0.00633419 0.0225428 -0.0012031 0.00628896 0.0271238 -0.00210261 0.00730785 
0.0300503 -0.00231099 0.00535452 0.00354004 -0.0129739 0.00820257 0.00608172 -0.0140678 0.00887699 
0.00884469 -0.0147853 0.00884276 0.0110785 -0.0130049 0.00875041 0.00297701 -0.0102233 0.00872369 
0.0054479 -0.0113734 0.0095965 0.00738458 -0.0118888 0.00757334 0.0117749 -0.0102737 0.00935042 
0.0166459 -0.0107845 0.00916811 0.0210571 -0.0119466 0.00834702 -0.00448665 -0.0090942 0.00937413 
6.30801e-05 -0.00904968 0.00910643 0.00608391 -0.00884484 0.00844071 0.00955801 -0.00874592 0.00834634 
0.0130135 -0.00779249 0.00865019 0.0157609 -0.00788357 0.00939895 0.0192779 -0.00972602 0.0087535 
-0.00729077 -0.00583233 0.00780298 -0.00314757 -0.00658453 0.00965333 -0.000628354 -0.00583897 0.00850492 
0.00386396 -0.00719962 0.00774773 0.00644025 -0.00590799 0.00968351 0.00924538 -0.00605581 0.00749329 
0.0198838 -0.00719249 0.00756607 0.0224016 -0.00615607 0.00842964 -0.0096468 -0.00500499 0.00918631 
-0.00866337 -0.00266998 0.0078692 -0.00711039 -0.00391857 0.00991866 -0.00380374 -0.00402669 0.00855409 
-0.000577607 -0.00284088 0.00966876 0.00356326 -0.00352643 0.00981163 0.00740107 -0.00392973 0.00782143 
0.0101316 -0.00358285 0.0086189 0.0125999 -0.00498989 0.00836973 0.0124875 -0.0026244 0.0099549 
0.0165454 -0.00329839 0.00804543 0.0187281 -0.0026677 0.00976907 0.0255632 -0.00380774 0.00897999 
-0.0104587 -0.00123762 0.00955946 -0.00516533 -0.0015063 0.00882786 -0.00246566 -0.00158422 0.00794109 
0.00105069 -0.000643701 0.00884594 0.00548453 -0.00191898 0.00844502 0.0143129 -0.0015081 0.00807029 
0.0168689 -0.000639803 0.0090009 0.0201155 -0.00115353 0.00778961 0.0245878 -0.00122206 0.00828092 
0.0298332 -0.00219739 0.00820119 0.00416233 -0.0135469 0.0109298 0.00817957 -0.0106221 0.0100048 
0.0143169 -0.0100109 0.0106356 0.000780108 -0.00940535 0.011844 0.00241584 -0.00780511 0.0101312 
0.00776106 -0.00801076 0.0110821 0.01083 -0.0079748 0.0107719 0.0131716 -0.00807734 0.0124007 
0.0177874 -0.00900577 0.0110737 0.0217315 -0.00988766 0.0101948 -0.000714284 -0.00710395 0.0110581 
0.00215601 -0.00579254 0.0121395 0.0048874 -0.00499341 0.0118726 0.00920095 -0.00565875 0.0103287 
0.0140201 -0.0059978 0.0106358 0.0165921 -0.0065203 0.011768 0.0190011 -0.00656758 0.0102154 
0.0230845 -0.00746772 0.0108722 -0.00311623 -0.0042638 0.0113168 -0.000353689 -0.00443807 0.0120185 
0.00731368 -0.0036256 0.0111455 0.010122 -0.0032024 0.0114507 0.0173817 -0.00379523 0.0120168 
0.015318 -0.0025174 0.0105169 0.0207353 -0.0048354 0.0116865 0.0233802 -0.00463813 0.0106258 
0.00156333 -0.00238374 0.011497 0.00496969 -0.00215425 0.0118893 0.00743754 -0.000787682 0.0115365 
0.0215344 -0.00248398 0.0102757 0.00106494 -0.0147855 0.0139153 0.0122412 -0.00172231 0.0126572 
-0.00950764 0.000138395 0.00149778 -0.00756671 0.00204064 0.00238054 -0.00357876 0.00198572 0.00149397 
0.0163976 0.00130195 0.00152583 0.0215094 0.00138048 0.00226268 0.0327489 9.53008e-05 0.00166425 
0.0355167 0.000765589 0.00159016 -0.0101336 0.00291725 0.00148805 -0.0056441 0.00395946 0.00148472 
0.0160455 0.00404815 0.00224392 0.0249141 0.00311661 0.0015007 0.0273338 0.00427095 0.00247708 
0.0335911 0.00275439 0.00230041 -0.0310371 0.00391722 0.00238764 -0.0282495 0.00447626 0.00268231 
-0.0119761 0.00726653 0.00198563 -0.00637092 0.00674217 0.00153948 0.000331112 0.00602754 0.00151571 
0.011335 0.00690418 0.00149245 0.0182507 0.00570142 0.00150496 0.0281006 0.0070095 0.00224247 
0.0308477 0.00625064 0.00229284 0.0344852 0.00540889 0.00172998 -0.0299761 0.00640535 0.00149028 
-0.00374808 0.00990984 0.00221499 0.00114685 0.00875854 0.00152097 0.00888895 0.00848224 0.00149239 
0.0114066 0.00975251 0.0015813 0.0264196 0.00995787 0.00157224 0.0331258 0.00791671 0.00189321 
-0.0120608 0.0101231 0.00204001 -0.00988583 0.0119077 0.00149595 -0.00715416 0.0113664 0.00216766 
-0.00106235 0.0105667 0.00146605 0.00349486 0.0102222 0.0022001 0.00619938 0.0109713 0.00154973 
0.00904558 0.0113538 0.00160317 0.0139299 0.0110291 0.00190802 0.0191803 0.0118515 0.00196747 
0.0240251 0.0114387 0.00198619 0.0292549 0.0103058 0.00145938 0.0310739 0.0124359 0.00186607 
-0.0115527 0.0141042 0.00226149 -0.00884132 0.0145718 0.00149457 0.00416533 0.0129509 0.00185583 
[...]
POINT_DATA 1000
FIELD FieldData 7
id 1 1000 int
41 10 49 266 25 280 297 3 18 
263 22 12 290 285 53 27 83 302 
36 282 268 251 277 295 37 48 21 
9 141 23 29 17 2 16 50 30 
46 15 39 247 43 104 38 33 7 
19 274 309 191 107 235 6 378 138 
164 248 24 254 1 252 52 262 504 
298 256 535 301 520 56 296 272 270 
58 306 258 13 45 294 264 260 32 
40 51 259 253 28 287 278 31 273 
4 281 305 34 65 304 205 54 47 
303 308 44 8 5 42 289 261 527 
292 279 291 11 35 434 67 14 554 
689 57 26 267 551 558 761 509 531 
555 544 543 501 533 549 524 525 508 
548 552 526 257 518 521 503 293 534 
283 528 286 284 767 507 506 276 255 
510 265 275 300 269 556 307 530 788 
20 804 529 536 158 299 288 547 807 
511 515 810 773 766 769 787 789 774 
782 751 768 765 776 755 516 797 546 
502 757 522 540 542 532 538 512 784 
519 794 523 505 764 545 539 517 557 
513 790 752 792 806 541 648 537 271 
550 514 809 801 775 805 802 781 796 
808 777 795 786 803 778 798 762 553 
758 791 800 763 759 753 783 793 780 
754 772 785 779 756 799 770 216 760 
193 339 102 55 186 136 160 357 199 
161 131 242 218 124 79 363 89 429 
112 331 384 425 234 197 237 69 63 
206 130 433 455 227 229 118 243 123 
116 211 238 157 149 169 223 175 204 
84 62 155 203 165 80 178 194 183 
472 154 249 179 222 90 127 310 120 
87 332 208 117 226 86 182 110 64 
430 105 159 407 404 75 231 399 174 
484 367 740 184 77 60 103 195 98 
236 360 151 219 121 177 143 239 156 
487 431 392 496 190 139 749 401 111 
114 233 91 416 397 323 113 389 482 
72 66 685 393 214 499 209 68 344 
413 202 330 328 380 724 96 232 359 
423 94 212 314 445 119 460 419 313 
101 85 122 73 213 189 333 147 99 
92 317 128 210 246 145 220 241 180 
352 448 142 185 78 88 198 150 61 
100 408 166 428 415 490 93 311 163 
240 462 492 570 346 427 471 387 146 
59 221 115 201 385 465 483 394 391 
82 126 245 196 109 106 412 495 379 
347 435 140 436 167 97 364 376 366 
315 464 491 188 341 451 437 422 463 
418 402 390 447 349 170 162 225 176 
439 224 153 334 76 388 168 81 148 
459 125 603 329 640 565 370 320 95 
134 192 207 200 679 709 457 369 675 
132 477 383 596 688 698 449 486 468 
382 129 655 642 632 678 732 365 673 
900 666 629 452 450 454 338 362 730 
680 563 335 398 727 912 438 173 172 
135 355 250 358 625 475 626 707 498 
152 70 466 470 396 456 561 343 476 
340 350 692 473 215 405 181 342 622 
598 494 74 480 137 244 368 373 461 
646 411 377 714 337 420 348 230 371 
386 674 409 406 414 481 474 594 395 
336 444 741 467 319 575 318 400 722 
620 322 728 590 560 171 581 702 479 
485 750 618 432 356 668 500 615 592 
381 616 71 564 623 442 879 898 228 
426 372 638 458 945 922 326 353 735 
325 571 567 613 577 663 652 441 573 
572 351 876 974 601 695 469 927 981 
992 967 862 703 417 440 747 645 915 
701 566 847 890 936 744 579 670 569 
593 738 930 589 979 316 656 903 611 
591 726 664 607 453 493 619 718 653 
410 658 609 446 870 606 354 217 108 
403 489 682 654 745 650 715 562 361 
421 497 488 617 599 610 624 700 424 
710 723 568 634 748 321 955 614 327 
312 578 828 660 733 739 585 588 743 
996 933 375 672 691 697 816 586 600 
587 621 595 665 597 576 643 651 644 
604 559 818 868 712 716 602 628 639 
662 720 988 734 608 999 708 925 746 
989 631 686 681 848 690 635 811 696 
641 729 693 699 860 853 906 919 612 
574 932 909 704 877 929 958 771 959 
896 649 717 961 886 921 984 971 835 
647 684 633 711 659 731 817 869 840 
837 942 964 882 814 627 843 705 582 
935 871 895 856 855 669 637 924 812 
917 953 657 859 683 584 374 324 671 
345 736 630 914 580 842 954 823 867 
719 742 908 815 824 897 902 583 976 
957 977 713 938 949 478 881 963 836 
721 948 968 826 905 844 694 676 636 
667 834 737 970 857 918 838 725 845 
993 852 889 893 880 944 822 947 987 
865 965 875 687 885 854 829 819 661 
940 952 980 986 827 830 858 978 874 
878 962 821 913 133 861 946 850 939 
928 907 841 997 825 916 941 833 901 
926 891 931 911 937 985 990 975 849 
998 910 813 863 943 888 873 883 677 
866 951 872 969 983 920 706 605 950 
851 846 934 894 1000 960 884 982 995 
956 966 904 973 923 994 831 899 972 
887 820 832 187 991 892 839 443 864 
144 
type 1 1000 int
1 1 1 1 1 1 1 1 1 
1 1 1 1 1 1 1 1 1 
1 1 1 1 1 1 1 1 1 
1 1 1 1 1 1 1 1 1 
1 1 1 1 1 1 1 1 1 
1 1 1 1 1 1 1 1 1 
1 1 1 1 1 1 1 1 1 
1 1 1 1 1 1 1 1 1 
1 1 1 1 1 1 1 1 1 
1 1 1 1 1 1 1 1 1 
1 1 1 1 1 1 1 1 1 
1 1 1 1 1 1 1 1 1 
1 1 1 1 1 1 1 1 1 
1 1 1 1 1 1 1 1 1 
1 1 1 1 1 1 1 1 1 
1 1 1 1 1 1 1 1 1 
1 1 1 1 1 1 1 1 1 
1 1 1 1 1 1 1 1 1 
1 1 1 1 1 1 1 1 1 
1 1 1 1 1 1 1 1 1 
1 1 1 1 1 1 1 1 1 
1 1 1 1 1 1 1 1 1 
1 1 1 1 1 1 1 1 1 
1 1 1 1 1 1 1 1 1 
1 1 1 1 1 1 1 1 1 
1 1 1 1 1 1 1 1 1 
1 1 1 1 1 1 1 1 1 
1 1 1 1 1 1 1 1 1 
1 1 1 1 1 1 1 1 1 
1 1 1 1 1 1 1 1 1 
1 1 1 1 1 1 1 1 1 
1 1 1 1 1 1 1 1 1 
1 1 1 1 1 1 1 1 1 
1 1 1 1 1 1 1 1 1 
1 1 1 1 1 1 1 1 1 
1 1 1 1 1 1 1 1 1 
1 1 1 1 1 1 1 1 1 
1 1 1 1 1 1 1 1 1 
1 1 1 1 1 1 1 1 1 
1 1 1 1 1 1 1 1 1 
1 1 1 1 1 1 1 1 1 
1 1 1 1 1 1 1 1 1 
1 1 1 1 1 1 1 1 1 
1 1 1 1 1 1 1 1 1 
1 1 1 1 1 1 1 1 1 
1 1 1 1 1 1 1 1 1 
1 1 1 1 1 1 1 1 1 
1 1 1 1 1 1 1 1 1 
1 1 1 1 1 1 1 1 1 
1 1 1 1 1 1 1 1 1 
1 1 1 1 1 1 1 1 1 
1 1 1 1 1 1 1 1 1 
1 1 1 1 1 1 1 1 1 
1 1 1 1 1 1 1 1 1 
1 1 1 1 1 1 1 1 1 
1 1 1 1 1 1 1 1 1 
1 1 1 1 1 1 1 1 1 
1 1 1 1 1 1 1 1 1 
1 1 1 1 1 1 1 1 1 
1 1 1 1 1 1 1 1 1 
1 1 1 1 1 1 1 1 1 
1 1 1 1 1 1 1 1 1 
1 1 1 1 1 1 1 1 1 
1 1 1 1 1 1 1 1 1 
1 1 1 1 1 1 1 1 1 
1 1 1 1 1 1 1 1 1 
1 1 1 1 1 1 1 1 1 
1 1 1 1 1 1 1 1 1 
1 1 1 1 1 1 1 1 1 
1 1 1 1 1 1 1 1 1 
1 1 1 1 1 1 1 1 1 
1 1 1 1 1 1 1 1 1 
1 1 1 1 1 1 1 1 1 
1 1 1 1 1 1 1 1 1 
1 1 1 1 1 1 1 1 1 
1 1 1 1 1 1 1 1 1 
1 1 1 1 1 1 1 1 1 
1 1 1 1 1 1 1 1 1 
1 1 1 1 1 1 1 1 1 
1 1 1 1 1 1 1 1 1 
1 1 1 1 1 1 1 1 1 
1 1 1 1 1 1 1 1 1 
1 1 1 1 1 1 1 1 1 
1 1 1 1 1 1 1 1 1 
1 1 1 1 1 1 1 1 1 
1 1 1 1 1 1 1 1 1 
1 1 1 1 1 1 1 1 1 
1 1 1 1 1 1 1 1 1 
1 1 1 1 1 1 1 1 1 
1 1 1 1 1 1 1 1 1 
1 1 1 1 1 1 1 1 1 
1 1 1 1 1 1 1 1 1 
1 1 1 1 1 1 1 1 1 
1 1 1 1 1 1 1 1 1 
1 1 1 1 1 1 1 1 1 
1 1 1 1 1 1 1 1 1 
1 1 1 1 1 1 1 1 1 
1 1 1 1 1 1 1 1 1 
1 1 1 1 1 1 1 1 1 
1 1 1 1 1 1 1 1 1 
1 1 1 1 1 1 1 1 1 
1 1 1 1 1 1 1 1 1 
1 1 1 1 1 1 1 1 1 
1 1 1 1 1 1 1 1 1 
1 1 1 1 1 1 1 1 1 
1 1 1 1 1 1 1 1 1 
1 1 1 1 1 1 1 1 1 
1 1 1 1 1 1 1 1 1 
1 1 1 1 1 1 1 1 1 
1 1 1 1 1 1 1 1 1 
1 1 1 1 1 1 1 1 1 
1 
i 3 1000 int
0 0 0 0 0 0 0 0 0 
0 0 0 0 0 0 0 0 0 
0 0 0 0 0 0 0 0 0 
0 0 0 0 0 0 0 0 0 
0 0 0 0 0 0 0 0 0 
0 0 0 0 0 0 0 0 0 
0 0 0 0 0 0 0 0 0 
0 0 0 0 0 0 0 0 0 
0 0 0 0 0 0 0 0 0 
0 0 0 0 0 0 0 0 0 
0 0 0 0 0 0 0 0 0 
0 0 0 0 0 0 0 0 0 
0 0 0 0 0 0 0 0 0 
0 0 0 0 0 0 0 0 0 
0 0 0 0 0 0 0 0 0 
0 0 0 0 0 0 0 0 0 
0 0 0 0 0 0 0 0 0 
0 0 0 0 0 0 0 0 0 
0 0 0 0 0 0 0 0 0 
0 0 0 0 0 0 0 0 0 
0 0 0 0 0 0 0 0 0 
0 0 0 0 0 0 0 0 0 
0 0 0 0 0 0 0 0 0 
0 0 0 0 0 0 0 0 0 
0 0 0 0 0 0 0 0 0 
0 0 0 0 0 0 0 0 0 
0 0 0 0 0 0 0 0 0 
0 0 0 0 0 0 0 0 0 
0 0 0 0 0 0 0 0 0 
0 0 0 0 0 0 0 0 0 
0 0 0 0 0 0 0 0 0 
0 0 0 0 0 0 0 0 0 
0 0 0 0 0 0 0 0 0 
0 0 0 0 0 0 0 0 0 
0 0 0 0 0 0 0 0 0 
0 0 0 0 0 0 0 0 0 
0 0 0 0 0 0 0 0 0 
0 0 0 0 0 0 0 0 0 
0 0 0 0 0 0 0 0 0 
0 0 0 0 0 0 0 0 0 
0 0 0 0 0 0 0 0 0 
0 0 0 0 0 0 0 0 0 
0 0 0 0 0 0 0 0 0 
0 0 0 0 0 0 0 0 0 
0 0 0 0 0 0 0 0 0 
0 0 0 0 0 0 0 0 0 
0 0 0 0 0 0 0 0 0 
0 0 0 0 0 0 0 0 0 
0 0 0 0 0 0 0 0 0 
0 0 0 0 0 0 0 0 0 
0 0 0 0 0 0 0 0 0 
0 0 0 0 0 0 0 0 0 
0 0 0 0 0 0 0 0 0 
0 0 0 0 0 0 0 0 0 
0 0 0 0 0 0 0 0 0 
0 0 0 0 0 0 0 0 0 
0 0 0 0 0 0 0 0 0 
0 0 0 0 0 0 0 0 0 
0 0 0 0 0 0 0 0 0 
0 0 0 0 0 0 0 0 0 
0 0 0 0 0 0 0 0 0 
0 0 0 0 0 0 0 0 0 
0 0 0 0 0 0 0 0 0 
0 0 0 0 0 0 0 0 0 
0 0 0 0 0 0 0 0 0 
0 0 0 0 0 0 0 0 0 
0 0 0 0 0 0 0 0 0 
0 0 0 0 0 0 0 0 0 
0 0 0 0 0 0 0 0 0 
0 0 0 0 0 0 0 0 0 
0 0 0 0 0 0 0 0 0 
0 0 0 0 0 0 0 0 0 
0 0 0 0 0 0 0 0 0 
0 0 0 0 0 0 0 0 0 
0 0 0 0 0 0 0 0 0 
0 0 0 0 0 0 0 0 0 
0 0 0 0 0 0 0 0 0 
0 0 0 0 0 0 0 0 0 
0 0 0 0 0 0 0 0 0 
0 0 0 0 0 0 0 0 0 
0 0 0 0 0 0 0 0 0 
0 0 0 0 0 0 0 0 0 
0 0 0 0 0 0 0 0 0 
0 0 0 0 0 0 0 0 0 
0 0 0 0 0 0 0 0 0 
0 0 0 0 0 0 0 0 0 
0 0 0 0 0 0 0 0 0 
0 0 0 0 0 0 0 0 0 
0 0 0 0 0 0 0 0 0 
0 0 0 0 0 0 0 0 0 
0 0 0 0 0 0 0 0 0 
0 0 0 0 0 0 0 0 0 
0 0 0 0 0 0 0 0 0 
0 0 0 0 0 0 0 0 0 
0 0 0 0 0 0 0 0 0 
0 0 0 0 0 0 0 0 0 
0 0 0 0 0 0 0 0 0 
0 0 0 0 0 0 0 0 0 
0 0 0 0 0 0 0 0 0 
0 0 0 0 0 0 0 0 0 
0 0 0 0 0 0 0 0 0 
0 0 0 0 0 0 0 0 0 
0 0 0 0 0 0 0 0 0 
0 0 0 0 0 0 0 0 0 
0 0 0 0 0 0 0 0 0 
0 0 0 0 0 0 0 0 0 
0 0 0 0 0 0 0 0 0 
0 0 0 0 0 0 0 0 0 
0 0 0 0 0 0 0 0 0 
0 0 0 0 0 0 0 0 0 
0 0 0 0 0 0 0 0 0 
0 0 0 0 0 0 0 0 0 
0 0 0 0 0 0 0 0 0 
0 0 0 0 0 0 0 0 0 
0 0 0 0 0 0 0 0 0 
0 0 0 0 0 0 0 0 0 
0 0 0 0 0 0 0 0 0 
0 0 0 0 0 0 0 0 0 
0 0 0 0 0 0 0 0 0 
0 0 0 0 0 0 0 0 0 
0 0 0 0 0 0 0 0 0 
0 0 0 0 0 0 0 0 0 
0 0 0 0 0 0 0 0 0 
0 0 0 0 0 0 0 0 0 
0 0 0 0 0 0 0 0 0 
0 0 0 0 0 0 0 0 0 
0 0 0 0 0 0 0 0 0 
0 0 0 0 0 0 0 0 0 
0 0 0 0 0 0 0 0 0 
0 0 0 0 0 0 0 0 0 
0 0 0 0 0 0 0 0 0 
0 0 0 0 0 0 0 0 0 
0 0 0 0 0 0 0 0 0 
0 0 0 0 0 0 0 0 0 
0 0 0 0 0 0 0 0 0 
0 0 0 0 0 0 0 0 0 
0 0 0 0 0 0 0 0 0 
0 0 0 0 0 0 0 0 0 
0 0 0 0 0 0 0 0 0 
0 0 0 0 0 0 0 0 0 
0 0 0 0 0 0 0 0 0 
0 0 0 0 0 0 0 0 0 
0 0 0 0 0 0 0 0 0 
0 0 0 0 0 0 0 0 0 
0 0 0 0 0 0 0 0 0 
0 0 0 0 0 0 0 0 0 
0 0 0 0 0 0 0 0 0 
0 0 0 0 0 0 0 0 0 
0 0 0 0 0 0 0 0 0 
0 0 0 0 0 0 0 0 0 
0 0 0 0 0 0 0 0 0 
0 0 0 0 0 0 0 0 0 
0 0 0 0 0 0 0 0 0 
0 0 0 0 0 0 0 0 0 
0 0 0 0 0 0 0 0 0 
0 0 0 0 0 0 0 0 0 
0 0 0 0 0 0 0 0 0 
0 0 0 0 0 0 0 0 0 
0 0 0 0 0 0 0 0 0 
0 0 0 0 0 0 0 0 0 
0 0 0 0 0 0 0 0 0 
0 0 0 0 0 0 0 0 0 
0 0 0 0 0 0 0 0 0 
0 0 0 0 0 0 0 0 0 
0 0 0 0 0 0 0 0 0 
0 0 0 0 0 0 0 0 0 
0 0 0 0 0 0 0 0 0 
0 0 0 0 0 0 0 0 0 
0 0 0 0 0 0 0 0 0 
0 0 0 0 0 0 0 0 0 
0 0 0 0 0 0 0 0 0 
0 0 0 0 0 0 0 0 0 
0 0 0 0 0 0 0 0 0 
0 0 0 0 0 0 0 0 0 
0 0 0 0 0 0 0 0 0 
0 0 0 0 0 0 0 0 0 
0 0 0 0 0 0 0 0 0 
0 0 0 0 0 0 0 0 0 
0 0 0 0 0 0 0 0 0 
0 0 0 0 0 0 0 0 0 
0 0 0 0 0 0 0 0 0 
0 0 0 0 0 0 0 0 0 
0 0 0 0 0 0 0 0 0 
0 0 0 0 0 0 0 0 0 
0 0 0 0 0 0 0 0 0 
0 0 0 0 0 0 0 0 0 
0 0 0 0 0 0 0 0 0 
0 0 0 0 0 0 0 0 0 
0 0 0 0 0 0 0 0 0 
0 0 0 0 0 0 0 0 0 
0 0 0 0 0 0 0 0 0 
0 0 0 0 0 0 0 0 0 
0 0 0 0 0 0 0 0 0 
0 0 0 0 0 0 0 0 0 
0 0 0 0 0 0 0 0 0 
0 0 0 0 0 0 0 0 0 
0 0 0 0 0 0 0 0 0 
0 0 0 0 0 0 0 0 0 
0 0 0 0 0 0 0 0 0 
0 0 0 0 0 0 0 0 0 
0 0 0 0 0 0 0 0 0 
0 0 0 0 0 0 0 0 0 
0 0 0 0 0 0 0 0 0 
0 0 0 0 0 0 0 0 0 
0 0 0 0 0 0 0 0 0 
0 0 0 0 0 0 0 0 0 
0 0 0 0 0 0 0 0 0 
0 0 0 0 0 0 0 0 0 
0 0 0 0 0 0 0 0 0 
0 0 0 0 0 0 0 0 0 
0 0 0 0 0 0 0 0 0 
0 0 0 0 0 0 0 0 0 
0 0 0 0 0 0 0 0 0 
0 0 0 0 0 0 0 0 0 
0 0 0 0 0 0 0 0 0 
0 0 0 0 0 0 0 0 0 
0 0 0 0 0 0 0 0 0 
0 0 0 0 0 0 0 0 0 
0 0 0 0 0 0 0 0 0 
0 0 0 0 0 0 0 0 0 
0 0 0 0 0 0 0 0 0 
0 0 0 0 0 0 0 0 0 
0 0 0 0 0 0 0 0 0 
0 0 0 0 0 0 0 0 0 
0 0 0 0 0 0 0 0 0 
0 0 0 0 0 0 0 0 0 
0 0 0 0 0 0 0 0 0 
0 0 0 0 0 0 0 0 0 
0 0 0 0 0 0 0 0 0 
0 0 0 0 0 0 0 0 0 
0 0 0 0 0 0 0 0 0 
0 0 0 0 0 0 0 0 0 
0 0 0 0 0 0 0 0 0 
0 0 0 0 0 0 0 0 0 
0 0 0 0 0 0 0 0 0 
0 0 0 0 0 0 0 0 0 
0 0 0 0 0 0 0 0 0 
0 0 0 0 0 0 0 0 0 
0 0 0 0 0 0 0 0 0 
0 0 0 0 0 0 0 0 0 
0 0 0 0 0 0 0 0 0 
0 0 0 0 0 0 0 0 0 
0 0 0 0 0 0 0 0 0 
0 0 0 0 0 0 0 0 0 
0 0 0 0 0 0 0 0 0 
0 0 0 0 0 0 0 0 0 
0 0 0 0 0 0 0 0 0 
0 0 0 0 0 0 0 0 0 
0 0 0 0 0 0 0 0 0 
0 0 0 0 0 0 0 0 0 
0 0 0 0 0 0 0 0 0 
0 0 0 0 0 0 0 0 0 
0 0 0 0 0 0 0 0 0 
0 0 0 0 0 0 0 0 0 
0 0 0 0 0 0 0 0 0 
0 0 0 0 0 0 0 0 0 
0 0 0 0 0 0 0 0 0 
0 0 0 0 0 0 0 0 0 
0 0 0 0 0 0 0 0 0 
0 0 0 0 0 0 0 0 0 
0 0 0 0 0 0 0 0 0 
0 0 0 0 0 0 0 0 0 
0 0 0 0 0 0 0 0 0 
0 0 0 0 0 0 0 0 0 
0 0 0 0 0 0 0 0 0 
0 0 0 0 0 0 0 0 0 
0 0 0 0 0 0 0 0 0 
0 0 0 0 0 0 0 0 0 
0 0 0 0 0 0 0 0 0 
0 0 0 0 0 0 0 0 0 
0 0 0 0 0 0 0 0 0 
0 0 0 0 0 0 0 0 0 
0 0 0 0 0 0 0 0 0 
0 0 0 0 0 0 0 0 0 
0 0 0 0 0 0 0 0 0 
0 0 0 0 0 0 0 0 0 
0 0 0 0 0 0 0 0 0 
0 0 0 0 0 0 0 0 0 
0 0 0 0 0 0 0 0 0 
0 0 0 0 0 0 0 0 0 
0 0 0 0 0 0 0 0 0 
0 0 0 0 0 0 0 0 0 
0 0 0 0 0 0 0 0 0 
0 0 0 0 0 0 0 0 0 
0 0 0 0 0 0 0 0 0 
0 0 0 0 0 0 0 0 0 
0 0 0 0 0 0 0 0 0 
0 0 0 0 0 0 0 0 0 
0 0 0 0 0 0 0 0 0 
0 0 0 0 0 0 0 0 0 
0 0 0 0 0 0 0 0 0 
0 0 0 0 0 0 0 0 0 
0 0 0 0 0 0 0 0 0 
0 0 0 0 0 0 0 0 0 
0 0 0 0 0 0 0 0 0 
0 0 0 0 0 0 0 0 0 
0 0 0 0 0 0 0 0 0 
0 0 0 0 0 0 0 0 0 
0 0 0 0 0 0 0 0 0 
0 0 0 0 0 0 0 0 0 
0 0 0 0 0 0 0 0 0 
0 0 0 0 0 0 0 0 0 
0 0 0 0 0 0 0 0 0 
0 0 0 0 0 0 0 0 0 
0 0 0 0 0 0 0 0 0 
0 0 0 0 0 0 0 0 0 
0 0 0 0 0 0 0 0 0 
0 0 0 0 0 0 0 0 0 
0 0 0 0 0 0 0 0 0 
0 0 0 0 0 0 0 0 0 
0 0 0 0 0 0 0 0 0 
0 0 0 0 0 0 0 0 0 
0 0 0 0 0 0 0 0 0 
0 0 0 0 0 0 0 0 0 
0 0 0 0 0 0 0 0 0 
0 0 0 0 0 0 0 0 0 
0 0 0 0 0 0 0 0 0 
0 0 0 0 0 0 0 0 0 
0 0 0 0 0 0 0 0 0 
0 0 0 0 0 0 0 0 0 
0 0 0 0 0 0 0 0 0 
0 0 0 0 0 0 0 0 0 
0 0 0 0 0 0 0 0 0 
0 0 0 0 0 0 0 0 0 
0 0 0 0 0 0 0 0 0 
0 0 0 0 0 0 0 0 0 
0 0 0 0 0 0 0 0 0 
0 0 0 0 0 0 0 0 0 
0 0 0 0 0 0 0 0 0 
0 0 0 0 0 0 0 0 0 
0 0 0 0 0 0 0 0 0 
0 0 0 0 0 0 0 0 0 
0 0 0 0 0 0 0 0 0 
0 0 0 
v 3 1000 double
0.12000647921 0.34491153503 0.087886181386 -0.072578620763 0.055048155843 0.023740413171 0.0067200296977 0.0012411139549 0.0020046566599 
0.00059315786908 -0.0053906897596 -0.0010812566732 0.00037471507393 -0.0010894802296 -0.00097708049178 0.00074023757894 0.0067362152408 0.0029551012147 
-0.0016988754916 0.0031125781349 -0.0045452064397 -0.0011028444229 0.00091313462702 -0.0025731679307 -0.045360403 0.0012571816933 -0.010944286021 
-0.0021924595535 -0.0054198800005 -0.0032675665828 -0.0026809193368 -0.00221847105 -0.0031767293758 -0.0027741609673 -5.1734767195e-05 -0.004641028755 
-0.0032944064008 0.0014578031566 -0.00017242661248 -0.0041295210155 0.0011327034833 -0.0037284853061 -0.00032995709356 0.0038033020653 -0.0069094609591 
0.0014859721293 0.0018570682573 -0.0033373758846 0.16241807717 0.045184743521 0.006451110037 -0.0031438387008 -0.0025697463296 -0.0040057971632 
-0.0060586033483 -0.0068284239988 -0.0031112258445 -0.0044841441978 -0.0079933223545 -0.0012034762759 -0.0044157860379 -0.0038112602307 -0.0051219747946 
-0.0044719755311 -0.0012403774097 0.0022270696871 -0.0045321143342 0.00099537291186 0.0021580656605 -0.004280235384 0.00096274581177 -0.00034214723224 
-0.0037647811177 0.0014179099457 -0.001546042366 -0.00085654566569 0.0032106083088 -0.0036736024557 0.0036125242201 0.0033165782384 -0.0005079601505 
0.0045989916948 0.0086540384646 -0.0048054404296 0.0045213135529 0.014659078426 -0.00096194017563 0.18219091022 0.042138438189 -0.030903120842 
0.17113976123 0.01915658848 0.050262903788 -0.004203265523 -0.0075696189126 -0.0054574069677 -0.0045727976684 -0.0060542350997 -0.0056307834679 
-0.0032434585473 0.00051376549451 0.00078584202741 -0.002587488742 0.0025858115587 0.0019997630639 -0.0036134132087 0.001156502364 0.00061434500354 
-0.0029157549944 0.0025648268821 -0.0010358140106 0.00076280433829 0.0019000805116 -6.9606884262e-05 -0.00053934569944 0.0035579565679 0.00025964219644 
-0.0030254792145 0.0085539691582 -0.0029965607167 -0.0039616670661 -0.001781556939 -0.0035428510509 -0.0043227063199 0.001579343046 -0.0050922898363 
0.0013938074014 0.0061992243239 0.0020136644078 -0.0018250515962 -0.0018034456 0.0011456637696 -0.0015920110061 -0.00064259854041 0.0010835665762 
-0.0018406384666 0.0023442681945 0.0018124441603 -0.0035992739379 0.0013943390991 0.00012080833796 -0.0055990666115 0.0030467114154 -0.0037790395233 
-0.0047030613524 -0.0021633063524 -0.0037516583032 -0.005362821549 -0.0027346021196 -0.00025311709132 -0.0071781901497 -0.0010662085948 -0.0044158708259 
-0.0076961120198 0.0013900295562 -0.0032635112018 -0.0065198201294 -0.0037657988043 0.0069470325062 -0.0031817252545 -0.0027394699254 0.0019603878772 
-0.0011470208677 0.0038643883578 0.012637749039 0.019408017162 0.0083224025123 0.00078370391962 -0.21451502283 0.3427657517 0.021073854774 
0.004402526552 -0.0030863311258 0.00068658060786 0.010580079092 0.0029396690952 0.0034518410399 0.0004902210504 -0.0035575616903 -0.00070764985634 
0.0014111323457 0.0039478027781 0.0010099420277 -0.00078355401608 0.0056290634525 0.0033028161034 0.0029415779741 0.0089274882028 0.0044000991337 
-0.0019601325647 -0.0043092542636 -0.0022585901895 -0.0017318226524 -0.0017285450139 -0.001631699146 -0.00098774362305 0.0057288958417 0.0097297651822 
-0.00072113480765 0.0018976206606 0.00019634808931 -0.0026231355642 0.0030257966228 0.00035506873848 -0.00079951245098 0.0018227477112 -0.0044266426918 
0.0010438354664 0.00059530030828 -0.0074974672904 -0.00082717948074 0.0018027854645 -0.0054443569581 -0.0036572967453 -0.0043487056627 -0.0044284284833 
-0.0036391231372 -0.0053859453362 -0.004693391459 -0.0035573650168 -0.0029532243422 -0.0051344343951 -0.0063718325317 -0.00025382096644 -0.0012660604477 
-0.0036152141675 -0.0011024156891 -0.0016546951978 -0.0014161947595 2.4917356884e-05 -0.0015973716874 -0.00015722877283 0.00082741423201 -0.0029512840456 
0.0016430882233 0.0015480221769 -0.0013110647745 0.0041701566511 0.0035142720031 0.00041740503983 0.0086595295761 0.0048490100682 -0.016009152154 
0.17502048131 0.051862034279 0.00087891170803 0.16266263084 0.061527144755 -0.015294982586 -0.0019134258471 -0.0027163829795 -0.0075898654848 
-0.0032427202378 -0.0038730983186 -0.0070116459944 -0.0042585310245 -0.0044883230546 -0.005834916139 -0.0044236946868 -0.0030274923903 -0.0062431505089 
-0.0055472755455 -0.001582381893 0.00062314991915 -0.0031392476644 -0.0013630810232 0.00096220468002 -0.00056087800364 -0.0011816031046 0.00057194707092 
-0.00032698267023 0.00061303679926 -0.00022796247343 0.00037365296859 0.0026895580989 0.00084719954507 0.00049518633092 0.0060093449091 -0.00025729968918 
0.0024317659605 0.007890708278 -0.00041831101077 0.001218344842 0.015908253858 -0.00012081972257 -0.0038121079194 -0.0044437638475 -0.004658727475 
-0.0047185770104 -0.0036148718593 -0.0043534892939 -0.0048131818394 -0.0033567639599 -0.0048745244662 -0.0042675565168 -0.0030261256825 -0.0051161640568 
-0.0051095169097 -0.0021820005533 -0.0050542101466 -0.0043400553243 -0.0020361478452 -0.0055149872217 -0.003574315121 0.0053773054003 -0.0043550714719 
-0.001555502244 -0.0012682472325 0.0048354565609 -0.0016169614688 -0.0025328967543 0.0018213844348 -0.0014658262215 -0.0030895176325 0.0016589358367 
-0.0015070352662 -0.00065222668042 0.0011800592673 -0.0026224963437 0.0004166471228 0.0011368399376 -0.0053937856962 0.0056281160955 -0.0017430237609 
-0.0024822617969 0.0093726806214 -0.0038879687657 -0.0098278607559 0.0054288915908 -0.010920594627 -0.003681408118 -0.004728588796 -0.0026334813631 
-0.0052884272202 -0.0032331323839 -0.0034368668339 -0.0069492017384 0.00061154966984 -0.0040688622425 -0.0006976483865 -0.0040709153469 0.0084865832268 
-0.0026369709805 -0.0049440902644 0.0027015192879 -0.0038485712172 -0.0016298779544 0.0064317906341 -0.0075822697179 0.0064286829355 -0.0083347221553 
-0.0045602857414 0.0026873976946 -0.025239118419 0.23463219487 0.11843348381 0.74687596589 0.0033375102461 -0.00027529855309 0.00089184503887 
-0.00083273941958 0.0018298113621 3.4759421297e-05 -0.00094907761803 0.0043422123969 0.00107963379 0.0013770208583 0.0041785406834 0.0011159689974 
0.0010139053127 -0.0025293430859 -0.0029279397732 -0.0027258843043 0.0016680205249 0.0027969184516 -0.0017628848541 -0.00061049836749 -0.0025110778883 
-0.0020863036131 0.0031083485266 0.0020409427258 -0.0047247691067 0.018265350443 -0.0027784748895 -0.0017037599812 -0.0034769549445 -0.0096527574037 
0.00089824802196 -0.0010475243386 -0.0049430636731 -0.0045775861182 -0.0022900897655 -0.0047727807948 -0.0042175195795 -0.005748474986 -0.0046472998835 
-0.0016106517794 -0.0022979693912 -0.0047257288163 -0.0039216778037 -0.0033599847716 -0.0065394789075 -0.0023140297821 -0.00018441787384 -0.0066120127495 
-0.009432073031 0.001393863765 0.0027354950247 -0.0015114688144 0.0044354529969 -0.0034133910817 -0.0042682803993 0.0022473181598 0.0015635532494 
-0.0014012518461 -0.0031125881682 -0.0046580811578 -0.0028328477339 0.00072648795877 -0.006899792217 -0.002084876824 0.00203106543 -0.0034039588812 
0.00261095092 0.00094793778557 0.0005331153889 -0.0036654782482 -0.0048642817427 -0.0046141579524 -0.0039979189877 -0.0025025432956 -0.0078726588266 
-0.0035871490572 0.00039666702091 -0.0055457950199 -0.0033131000688 0.0039866529235 -0.0016138010183 -0.0028168180841 0.0016976192509 -4.8530195952e-05 