# vtk DataFile Version 4.1
Generated by LIGGGHTS
ASCII
DATASET POLYDATA
POINTS 1000 float
0.00615973 -0.0447388 0.00224522 0.00493736 -0.0421892 0.0026448 0.00987478 -0.0332155 0.00165347 
0.00613779 -0.0159233 0.00159578 0.00234629 -0.0131365 0.0014823 0.00519262 -0.0132409 0.00172285 
0.00799275 -0.0137624 0.00165808 0.0220948 -0.0128104 0.00147628 0.00258871 -0.0103006 0.00165789 
0.00543378 -0.0103893 0.00149871 0.0083149 -0.0103539 0.00155635 0.0111733 -0.0102484 0.00147636 
0.0137583 -0.0114491 0.00159631 0.0166411 -0.0125622 0.00191058 0.0194086 -0.0118391 0.00158341 
0.0310937 -0.0101634 0.00160689 -0.0294981 -0.00738435 0.00318595 -0.00442271 -0.00951508 0.00231076 
-0.000232783 -0.00981363 0.00147992 0.00404239 -0.00787192 0.00148792 0.00685572 -0.00793759 0.00181934 
0.00967669 -0.00782765 0.00150251 0.0124993 -0.00780018 0.00203166 0.0150724 -0.00894082 0.00151498 
0.0204244 -0.00920975 0.00190609 0.0255518 -0.00891024 0.00180059 0.0283735 -0.00928787 0.00149441 
0.0324314 -0.00765916 0.00171004 -0.0316511 -0.00617122 0.00177061 -0.00630471 -0.00754875 0.0014896 
-0.00350892 -0.00692805 0.00148754 -0.000680241 -0.00704145 0.00201015 0.00811659 -0.00541649 0.00151491 
0.0130983 -0.00508129 0.00150098 0.0157039 -0.00617245 0.00149623 0.0182445 -0.00742291 0.00145318 
0.0238436 -0.00659462 0.00171778 0.027257 -0.00663796 0.00149579 -0.000799312 -0.00262736 0.0014868 
0.00641412 -0.00313309 0.00149628 0.0112928 -0.00290527 0.0018064 0.0175989 -0.00406874 0.00146531 
0.0203172 -0.0036505 0.00218017 0.0230648 -0.00387662 0.00148589 0.0258665 -0.00415489 0.00196601 
0.0286981 -0.00416532 0.00146914 0.0314166 -0.00500923 0.00172108 -0.00482519 -0.00039837 0.00204636 
0.00417616 -0.00135775 0.0015004 0.00683924 -0.000303085 0.00148818 -0.034078 -0.0206075 0.0373946 
0.0175576 -0.00123263 0.00143603 0.0226871 -0.00105127 0.00151701 0.0353061 -0.00146613 0.00165441 
0.00381614 -0.0396165 0.00212347 0.00357786 -0.0153847 0.00271859 0.0057504 -0.0171947 0.00412333 
0.00232097 -0.0133958 0.00431814 0.00649595 -0.0144432 0.00399231 0.00921755 -0.012653 0.00394945 
0.0147428 -0.0132537 0.00393802 0.000881405 -0.0109796 0.00381949 0.00411177 -0.0112428 0.00387563 
0.00713786 -0.0108544 0.0046712 0.0120656 -0.0122741 0.00368591 0.0103328 -0.0100432 0.00416034 
0.0183362 -0.0121535 0.00416897 0.0214423 -0.0118553 0.00406777 0.0230847 -0.010262 0.00237174 
-0.00255123 -0.0080906 0.00389876 0.00268836 -0.00877758 0.00407725 0.0136807 -0.00904384 0.00432885 
0.0175139 -0.00991704 0.00259926 0.0161628 -0.00770743 0.00385395 0.0190025 -0.00798245 0.00410345 
0.0216098 -0.00903911 0.00448211 0.0244453 -0.00880352 0.00442584 0.027279 -0.00886718 0.00409087 
-0.0320192 -0.00698634 0.00448287 -0.0303522 -0.00475437 0.00389245 -0.00734578 -0.00568325 0.00335386 
-0.00532562 -0.00753453 0.00415495 -0.000233625 -0.00671618 0.00482644 -0.00231016 -0.00526208 0.00350529 
0.00294241 -0.00601962 0.00337677 0.00607723 -0.0069343 0.0043638 0.0137176 -0.00619095 0.00406642 
0.0193524 -0.00514537 0.00440359 0.0212598 -0.00668773 0.00291328 0.0244737 -0.00595024 0.00444452 
0.0273224 -0.00601479 0.00425477 0.029798 -0.00713381 0.00271863 0.0320957 -0.00628413 0.00418906 
-0.033757 -0.00503571 0.00332069 -0.0058074 -0.00336923 0.00405468 -0.00335628 -0.00273377 0.0027555 
0.000461382 -0.00462476 0.00306272 0.00185407 -0.0026839 0.00462182 0.00430419 -0.0035045 0.00338178 
0.00875953 -0.00311419 0.00308922 0.0133502 -0.00335483 0.00372644 0.0159678 -0.00446352 0.00377503 
0.0181622 -0.00262451 0.00382359 0.0213771 -0.00313819 0.00477566 0.0241221 -0.00315918 0.00401783 
0.0297962 -0.00458313 0.00403792 -0.00739111 -0.00154457 0.00252454 -0.00200644 -0.000226609 0.00240077 
-0.000977844 -0.00249601 0.00432579 0.000766336 -0.000698835 0.00289181 0.00643921 -0.00167732 0.00394087 
0.0133422 -0.000122949 0.00476314 0.0166872 -0.000155768 0.00387137 0.0200897 -0.000846608 0.0026842 
0.0268954 -0.00251718 0.00405378 0.0288035 -0.000486971 0.00340387 0.0306921 -0.00236807 0.00245658 
0.00418939 -0.0152282 0.00548655 0.00540872 -0.0126952 0.00597796 0.00828408 -0.0141849 0.00616852 
0.0110035 -0.0133802 0.00605515 -0.000269968 -0.0121847 0.00612761 0.00244191 -0.0112524 0.00618988 
0.0104114 -0.0107183 0.00691342 0.0134883 -0.0119886 0.00616078 0.0175842 -0.0122491 0.00690721 
0.0198798 -0.010673 0.00610207 0.0245049 -0.0102311 0.00691435 -0.000694444 -0.00942595 0.00558467 
0.00173897 -0.0085335 0.00676691 0.00502009 -0.00923827 0.00567684 0.00915599 -0.00765961 0.00520873 
0.0117298 -0.00821535 0.00624484 0.017238 -0.00981439 0.00543069 -0.00511558 -0.00761524 0.00701432 
-0.00429748 -0.00527304 0.00555828 -0.0022374 -0.00761153 0.00715711 0.00167574 -0.00565447 0.00668626 
0.00431866 -0.00513154 0.00573747 0.00662735 -0.00645217 0.00709746 0.0116159 -0.00538035 0.00580662 
0.021848 -0.00582409 0.0055603 0.0245079 -0.00737295 0.00689969 -0.00830143 -0.00429034 0.00563577 
-0.00594218 -0.00334188 0.00690894 -0.00159414 -0.00457649 0.0061778 0.00328952 -0.00279902 0.00709161 
0.00698065 -0.00429059 0.00500788 0.00957629 -0.00339846 0.00579585 0.0126782 -0.00280865 0.00641246 
0.0147431 -0.00476825 0.00633474 0.0194183 -0.0035292 0.00679441 0.0233934 -0.00374543 0.00672285 
0.0261153 -0.00428128 0.00612738 -0.00755888 -0.00155817 0.0053671 -0.00353661 -0.00253647 0.00560935 
0.000181802 -0.00245037 0.00693519 0.00670521 -0.000205225 0.00635875 0.015291 -0.00212267 0.00539708 
0.0178759 -0.00119363 0.0062415 0.0227332 -0.00102076 0.00609395 0.0303061 -0.00205009 0.00526478 
0.0327015 -0.000900188 0.00421333 -0.0339666 -0.0333979 0.00640205 0.00372922 -0.0126793 0.00830167 
0.0130963 -0.00775796 0.00865513 0.0152742 -0.00829275 0.00685006 0.0195326 -0.00947961 0.00865157 
0.0219475 -0.00909307 0.0072917 -0.00667618 -0.00565309 0.00841149 -0.000499097 -0.00579602 0.00852975 
0.00391259 -0.00702652 0.00784137 0.00663153 -0.00558206 0.00977354 0.00940499 -0.00596547 0.00749653 
0.0199991 -0.00698371 0.007384 0.0224798 -0.00595341 0.00830692 -0.00851279 -0.00251096 0.00786987 
-0.00388955 -0.0039525 0.00881507 -0.000417538 -0.00258768 0.00973681 0.00754902 -0.00380765 0.00774758 
0.0102753 -0.00347635 0.00856397 0.0127505 -0.00491244 0.00837182 0.0168636 -0.00317239 0.00802575 
-0.00230429 -0.0014756 0.00794875 0.00127858 -0.000545222 0.00879349 0.00560356 -0.00185594 0.00842396 
0.0145484 -0.00146717 0.00806729 0.0171099 -0.000454232 0.00888197 0.0203494 -0.000964029 0.00763426 
0.00942693 -0.00551066 0.010345 0.012616 -0.00249579 0.00989879 0.0111288 -0.0129307 0.00889591 
-0.0017296 -0.010227 0.00815124 0.00332231 -0.0099582 0.00899133 0.00733912 -0.0122501 0.0080479 
0.00634462 -0.00836937 0.00910821 0.0118276 -0.0102199 0.00933635 0.0157406 -0.00792409 0.00962672 
0.0220027 -0.00973131 0.0100475 0.00308793 -0.00760185 0.0105376 0.0139035 -0.006022 0.0107622 
0.0195441 -0.00656535 0.0101596 -0.0104543 -0.00240404 0.00993257 -0.00545711 -0.00216946 0.0104084 
0.00359057 -0.00328988 0.00984976 0.00763261 -0.00352152 0.0113867 0.0104385 -0.00314472 0.0116433 
0.0248543 -0.00357239 0.00920498 0.0288615 -0.00430609 0.00689752 0.01902 -0.00245113 0.00967308 
0.00651988 -0.0133407 0.0107412 0.0143607 -0.0101852 0.0105818 0.0166853 -0.0108308 0.00926876 
0.00577052 -0.0105676 0.0108146 0.00938532 -0.00900486 0.0103318 0.0180756 -0.00889234 0.0109958 
-0.00798889 -0.00549927 0.0109411 -0.0031151 -0.00612623 0.0104754 0.00537002 -0.00492856 0.0124128 
0.0164573 -0.00650959 0.0119941 0.0202806 -0.00503223 0.012437 0.0228945 -0.00711737 0.0108463 
0.0271749 -0.00569391 0.00884419 -0.000507646 -0.00378512 0.0122833 0.00785469 -0.000670959 0.0117801 
-0.0062501 -0.00137332 0.0130478 0.0154587 -0.00239863 0.0105848 0.0272842 -0.00218773 0.00879565 
0.00423343 -0.0127966 0.0124178 0.0103668 -0.0132928 0.0115855 -0.00375142 -0.00832411 0.0120272 
0.000584038 -0.00905649 0.0108704 0.0139672 -0.00874729 0.0130447 0.0216121 -0.010047 0.0128494 
-0.000426238 -0.00664805 0.0123856 0.00265381 -0.00587275 0.0127668 0.007527 -0.00659218 0.013405 
-0.00662609 -0.00477834 0.0133369 -0.00304685 -0.00461988 0.0133885 0.00617507 -0.00230907 0.0134674 
0.0111633 -0.00191703 0.0141076 0.0164168 -0.00379934 0.0128757 0.0234 -0.00449436 0.0118263 
0.0286865 -0.00314983 0.0119603 -0.00962949 -0.00207014 0.0125324 0.00160338 -0.00171867 0.0120557 
0.0197147 -0.00223164 0.0124262 0.0250395 -0.00175307 0.012167 0.00695548 -0.0105677 0.0134176 
0.00232397 -0.00859911 0.0133449 0.0103748 -0.00771657 0.0132591 0.0140329 -3.57506e-05 0.0019937 
-0.0094103 0.000185266 0.00148947 -0.00751072 0.00212362 0.00238767 -0.00348488 0.00207341 0.00148165 
0.0164641 0.00141611 0.0015149 0.0216003 0.00152009 0.00219474 0.0331409 0.000376911 0.00169823 
-0.0100614 0.00295317 0.00143736 -0.00558032 0.00402043 0.00146616 0.0161226 0.00415305 0.00223666 
0.0250206 0.00322603 0.00144328 0.0274696 0.00440863 0.00238492 0.0337277 0.00311564 0.00220672 
-0.0119186 0.00741394 0.00191006 -0.00628094 0.0068216 0.0014823 0.000467731 0.00603582 0.00148784 
0.0114556 0.00702093 0.00147515 0.0183298 0.00580668 0.0014785 0.028274 0.00717193 0.0022025 
0.0345338 0.00576105 0.00151546 0.00127045 0.00876983 0.00148674 0.00899565 0.00859288 0.00147481 
0.011521 0.00987096 0.00153323 0.033155 0.00826143 0.00161034 -0.0119998 0.0102704 0.0020231 
-0.00981066 0.0120077 0.00145217 -0.00709277 0.0114492 0.00210672 -0.00365817 0.0100058 0.0021706 
-0.000934492 0.0105995 0.00146923 0.00360131 0.0102812 0.00216865 0.00629919 0.011057 0.00149738 
0.00914927 0.0114655 0.00154535 0.0140408 0.0111517 0.00185637 0.0192937 0.0119698 0.00190827 
0.0241687 0.0115967 0.00193484 0.0265687 0.0101173 0.00154906 0.0293893 0.0104756 0.00144756 
-0.0143271 0.0140742 0.00228195 -0.0114778 0.0141774 0.00219381 -0.00873997 0.0146621 0.00148071 
0.00424063 0.0130216 0.00179673 0.00958409 0.0142893 0.00179123 0.0168689 0.0134131 0.00146285 
0.0213024 0.0140304 0.00194685 0.024144 0.0144239 0.00166624 0.0266421 0.012983 0.00168837 
[...]
POINT_DATA 1000
FIELD FieldData 7
id 1 1000 int
10 24 18 49 266 25 280 3 263 
22 12 290 285 297 53 32 40 36 
282 268 251 277 295 37 48 21 9 
141 23 302 17 2 16 50 30 46 
15 39 43 104 38 33 7 19 274 
309 247 191 235 6 57 138 164 248 
41 254 1 252 52 262 504 298 256 
535 301 520 296 272 27 58 306 258 
56 13 45 294 264 260 51 83 259 
270 253 28 287 278 31 273 4 281 
305 34 65 29 304 205 47 303 308 
44 8 5 42 289 261 292 291 107 
54 11 35 434 67 14 527 554 279 
26 267 551 558 509 531 555 544 543 
501 533 524 508 548 552 526 257 549 
293 525 534 283 528 286 284 503 507 
506 255 510 265 275 300 269 556 307 
530 529 276 536 158 299 288 547 511 
689 20 515 516 518 546 521 502 522 
540 542 532 538 512 519 523 505 545 
539 517 513 541 648 537 271 550 514 
553 557 766 761 769 789 776 774 797 
803 796 758 800 804 806 764 783 793 
752 788 790 810 802 782 787 755 786 
784 757 762 791 772 763 767 753 799 
771 754 807 775 773 768 765 795 751 
778 798 808 794 759 756 760 780 785 
801 792 779 770 809 805 781 777 378 
193 339 102 55 186 136 357 199 161 
131 242 218 363 89 429 112 331 384 
234 69 63 206 433 455 227 229 237 
118 243 123 116 211 238 157 130 149 
178 223 175 204 84 62 155 203 165 
80 169 194 183 472 154 249 179 222 
90 127 310 120 87 332 208 117 86 
182 110 64 430 105 407 404 75 231 
399 174 159 740 184 77 103 195 484 
367 124 98 236 360 151 177 143 239 
156 487 431 392 496 190 139 95 401 
111 114 233 91 351 416 397 323 113 
389 482 72 66 685 160 393 214 499 
209 344 413 202 330 328 724 96 232 
359 423 94 212 314 445 119 460 425 
380 419 313 101 85 122 73 246 213 
189 147 99 92 317 128 210 145 220 
241 180 352 448 142 185 78 88 198 
150 61 100 408 166 428 415 490 93 
311 163 240 462 492 570 346 427 471 
387 146 59 221 115 201 385 483 394 
391 82 126 245 196 226 109 106 412 
495 379 465 347 435 140 436 167 97 
364 376 366 315 464 491 188 341 451 
437 422 463 418 402 60 390 447 349 
668 79 162 225 176 439 224 153 334 
76 388 168 197 81 148 459 125 603 
329 640 565 121 370 320 749 134 192 
207 200 679 709 457 369 132 477 732 
383 596 688 698 449 486 468 382 129 
68 655 642 678 365 673 629 452 450 
454 338 680 563 335 398 727 666 438 
173 172 135 355 362 250 333 358 475 
626 707 498 152 70 466 396 456 561 
343 476 340 350 692 473 215 405 181 
342 470 622 598 494 74 480 137 244 
368 373 461 646 411 377 337 420 348 
230 371 386 674 409 406 414 481 474 
594 714 395 336 444 741 467 319 575 
400 722 620 322 728 560 171 581 702 
592 479 318 485 750 618 432 356 708 
615 381 616 71 564 442 170 228 426 
372 623 458 219 326 353 735 325 571 
567 613 577 663 652 441 573 572 601 
695 469 703 417 440 747 645 675 632 
701 566 744 579 670 593 738 730 589 
316 656 611 591 726 664 607 453 493 
619 718 653 625 410 609 446 606 354 
217 108 403 489 682 654 650 715 562 
361 421 497 488 617 599 610 624 700 
424 710 723 568 634 748 321 614 327 
312 578 660 733 739 585 588 743 375 
672 691 697 586 600 587 621 595 597 
576 643 651 644 559 590 712 716 602 
628 639 662 720 604 734 608 500 746 
696 631 686 681 690 635 729 693 638 
612 574 704 649 717 647 633 711 659 
731 627 684 569 705 669 582 637 658 
657 683 584 374 671 345 736 630 580 
745 719 742 324 721 583 636 713 478 
694 676 667 737 725 665 687 661 641 
699 443 876 959 927 981 992 862 961 
915 890 835 855 843 901 979 871 856 
910 924 917 912 859 870 677 866 951 
914 867 706 605 897 976 982 828 948 
968 902 973 834 970 857 905 993 852 
893 987 988 875 885 818 925 952 811 
989 906 821 133 922 945 929 921 216 
967 916 833 841 837 847 817 930 935 
936 814 813 863 812 953 990 943 873 
883 954 950 934 824 966 957 977 949 
881 963 933 836 816 845 889 868 944 
822 965 819 947 940 986 827 858 978 
874 848 898 839 991 878 860 919 861 
932 877 974 825 896 886 997 984 971 
907 941 869 840 942 900 882 891 931 
911 937 864 985 964 926 903 895 975 
849 998 872 842 888 851 969 983 823 
955 920 908 846 815 894 1000 960 938 
884 956 826 844 904 996 923 838 994 
829 144 880 831 865 918 899 854 820 
980 830 972 887 892 879 913 850 939 
853 946 928 958 909 995 999 832 962 
187 
type 1 1000 int
1 1 1 1 1 1 1 1 1 
1 1 1 1 1 1 1 1 1 
1 1 1 1 1 1 1 1 1 
1 1 1 1 1 1 1 1 1 
1 1 1 1 1 1 1 1 1 
1 1 1 1 1 1 1 1 1 
1 1 1 1 1 1 1 1 1 
1 1 1 1 1 1 1 1 1 
1 1 1 1 1 1 1 1 1 
1 1 1 1 1 1 1 1 1 
1 1 1 1 1 1 1 1 1 
1 1 1 1 1 1 1 1 1 
1 1 1 1 1 1 1 1 1 
1 1 1 1 1 1 1 1 1 
1 1 1 1 1 1 1 1 1 
1 1 1 1 1 1 1 1 1 
1 1 1 1 1 1 1 1 1 
1 1 1 1 1 1 1 1 1 
1 1 1 1 1 1 1 1 1 
1 1 1 1 1 1 1 1 1 
1 1 1 1 1 1 1 1 1 
1 1 1 1 1 1 1 1 1 
1 1 1 1 1 1 1 1 1 
1 1 1 1 1 1 1 1 1 
1 1 1 1 1 1 1 1 1 
1 1 1 1 1 1 1 1 1 
1 1 1 1 1 1 1 1 1 
1 1 1 1 1 1 1 1 1 
1 1 1 1 1 1 1 1 1 
1 1 1 1 1 1 1 1 1 
1 1 1 1 1 1 1 1 1 
1 1 1 1 1 1 1 1 1 
1 1 1 1 1 1 1 1 1 
1 1 1 1 1 1 1 1 1 
1 1 1 1 1 1 1 1 1 
1 1 1 1 1 1 1 1 1 
1 1 1 1 1 1 1 1 1 
1 1 1 1 1 1 1 1 1 
1 1 1 1 1 1 1 1 1 
1 1 1 1 1 1 1 1 1 
1 1 1 1 1 1 1 1 1 
1 1 1 1 1 1 1 1 1 
1 1 1 1 1 1 1 1 1 
1 1 1 1 1 1 1 1 1 
1 1 1 1 1 1 1 1 1 
1 1 1 1 1 1 1 1 1 
1 1 1 1 1 1 1 1 1 
1 1 1 1 1 1 1 1 1 
1 1 1 1 1 1 1 1 1 
1 1 1 1 1 1 1 1 1 
1 1 1 1 1 1 1 1 1 
1 1 1 1 1 1 1 1 1 
1 1 1 1 1 1 1 1 1 
1 1 1 1 1 1 1 1 1 
1 1 1 1 1 1 1 1 1 
1 1 1 1 1 1 1 1 1 
1 1 1 1 1 1 1 1 1 
1 1 1 1 1 1 1 1 1 
1 1 1 1 1 1 1 1 1 
1 1 1 1 1 1 1 1 1 
1 1 1 1 1 1 1 1 1 
1 1 1 1 1 1 1 1 1 
1 1 1 1 1 1 1 1 1 
1 1 1 1 1 1 1 1 1 
1 1 1 1 1 1 1 1 1 
1 1 1 1 1 1 1 1 1 
1 1 1 1 1 1 1 1 1 
1 1 1 1 1 1 1 1 1 
1 1 1 1 1 1 1 1 1 
1 1 1 1 1 1 1 1 1 
1 1 1 1 1 1 1 1 1 
1 1 1 1 1 1 1 1 1 
1 1 1 1 1 1 1 1 1 
1 1 1 1 1 1 1 1 1 
1 1 1 1 1 1 1 1 1 
1 1 1 1 1 1 1 1 1 
1 1 1 1 1 1 1 1 1 
1 1 1 1 1 1 1 1 1 
1 1 1 1 1 1 1 1 1 
1 1 1 1 1 1 1 1 1 
1 1 1 1 1 1 1 1 1 
1 1 1 1 1 1 1 1 1 
1 1 1 1 1 1 1 1 1 
1 1 1 1 1 1 1 1 1 
1 1 1 1 1 1 1 1 1 
1 1 1 1 1 1 1 1 1 
1 1 1 1 1 1 1 1 1 
1 1 1 1 1 1 1 1 1 
1 1 1 1 1 1 1 1 1 
1 1 1 1 1 1 1 1 1 
1 1 1 1 1 1 1 1 1 
1 1 1 1 1 1 1 1 1 
1 1 1 1 1 1 1 1 1 
1 1 1 1 1 1 1 1 1 
1 1 1 1 1 1 1 1 1 
1 1 1 1 1 1 1 1 1 
1 1 1 1 1 1 1 1 1 
1 1 1 1 1 1 1 1 1 
1 1 1 1 1 1 1 1 1 
1 1 1 1 1 1 1 1 1 
1 1 1 1 1 1 1 1 1 
1 1 1 1 1 1 1 1 1 
1 1 1 1 1 1 1 1 1 
1 1 1 1 1 1 1 1 1 
1 1 1 1 1 1 1 1 1 
1 1 1 1 1 1 1 1 1 
1 1 1 1 1 1 1 1 1 
1 1 1 1 1 1 1 1 1 
1 1 1 1 1 1 1 1 1 
1 1 1 1 1 1 1 1 1 
1 1 1 1 1 1 1 1 1 
1 
i 3 1000 int
0 0 0 0 0 0 0 0 0 
0 0 0 0 0 0 0 0 0 
0 0 0 0 0 0 0 0 0 
0 0 0 0 0 0 0 0 0 
0 0 0 0 0 0 0 0 0 
0 0 0 0 0 0 0 0 0 
0 0 0 0 0 0 0 0 0 
0 0 0 0 0 0 0 0 0 
0 0 0 0 0 0 0 0 0 
0 0 0 0 0 0 0 0 0 
0 0 0 0 0 0 0 0 0 
0 0 0 0 0 0 0 0 0 
0 0 0 0 0 0 0 0 0 
0 0 0 0 0 0 0 0 0 
0 0 0 0 0 0 0 0 0 
0 0 0 0 0 0 0 0 0 
0 0 0 0 0 0 0 0 0 
0 0 0 0 0 0 0 0 0 
0 0 0 0 0 0 0 0 0 
0 0 0 0 0 0 0 0 0 
0 0 0 0 0 0 0 0 0 
0 0 0 0 0 0 0 0 0 
0 0 0 0 0 0 0 0 0 
0 0 0 0 0 0 0 0 0 
0 0 0 0 0 0 0 0 0 
0 0 0 0 0 0 0 0 0 
0 0 0 0 0 0 0 0 0 
0 0 0 0 0 0 0 0 0 
0 0 0 0 0 0 0 0 0 
0 0 0 0 0 0 0 0 0 
0 0 0 0 0 0 0 0 0 
0 0 0 0 0 0 0 0 0 
0 0 0 0 0 0 0 0 0 
0 0 0 0 0 0 0 0 0 
0 0 0 0 0 0 0 0 0 
0 0 0 0 0 0 0 0 0 
0 0 0 0 0 0 0 0 0 
0 0 0 0 0 0 0 0 0 
0 0 0 0 0 0 0 0 0 
0 0 0 0 0 0 0 0 0 
0 0 0 0 0 0 0 0 0 
0 0 0 0 0 0 0 0 0 
0 0 0 0 0 0 0 0 0 
0 0 0 0 0 0 0 0 0 
0 0 0 0 0 0 0 0 0 
0 0 0 0 0 0 0 0 0 
0 0 0 0 0 0 0 0 0 
0 0 0 0 0 0 0 0 0 
0 0 0 0 0 0 0 0 0 
0 0 0 0 0 0 0 0 0 
0 0 0 0 0 0 0 0 0 
0 0 0 0 0 0 0 0 0 
0 0 0 0 0 0 0 0 0 
0 0 0 0 0 0 0 0 0 
0 0 0 0 0 0 0 0 0 
0 0 0 0 0 0 0 0 0 
0 0 0 0 0 0 0 0 0 
0 0 0 0 0 0 0 0 0 
0 0 0 0 0 0 0 0 0 
0 0 0 0 0 0 0 0 0 
0 0 0 0 0 0 0 0 0 
0 0 0 0 0 0 0 0 0 
0 0 0 0 0 0 0 0 0 
0 0 0 0 0 0 0 0 0 
0 0 0 0 0 0 0 0 0 
0 0 0 0 0 0 0 0 0 
0 0 0 0 0 0 0 0 0 
0 0 0 0 0 0 0 0 0 
0 0 0 0 0 0 0 0 0 
0 0 0 0 0 0 0 0 0 
0 0 0 0 0 0 0 0 0 
0 0 0 0 0 0 0 0 0 
0 0 0 0 0 0 0 0 0 
0 0 0 0 0 0 0 0 0 
0 0 0 0 0 0 0 0 0 
0 0 0 0 0 0 0 0 0 
0 0 0 0 0 0 0 0 0 
0 0 0 0 0 0 0 0 0 
0 0 0 0 0 0 0 0 0 
0 0 0 0 0 0 0 0 0 
0 0 0 0 0 0 0 0 0 
0 0 0 0 0 0 0 0 0 
0 0 0 0 0 0 0 0 0 
0 0 0 0 0 0 0 0 0 
0 0 0 0 0 0 0 0 0 
0 0 0 0 0 0 0 0 0 
0 0 0 0 0 0 0 0 0 
0 0 0 0 0 0 0 0 0 
0 0 0 0 0 0 0 0 0 
0 0 0 0 0 0 0 0 0 
0 0 0 0 0 0 0 0 0 
0 0 0 0 0 0 0 0 0 
0 0 0 0 0 0 0 0 0 
0 0 0 0 0 0 0 0 0 
0 0 0 0 0 0 0 0 0 
0 0 0 0 0 0 0 0 0 
0 0 0 0 0 0 0 0 0 
0 0 0 0 0 0 0 0 0 
0 0 0 0 0 0 0 0 0 
0 0 0 0 0 0 0 0 0 
0 0 0 0 0 0 0 0 0 
0 0 0 0 0 0 0 0 0 
0 0 0 0 0 0 0 0 0 
0 0 0 0 0 0 0 0 0 
0 0 0 0 0 0 0 0 0 
0 0 0 0 0 0 0 0 0 
0 0 0 0 0 0 0 0 0 
0 0 0 0 0 0 0 0 0 
0 0 0 0 0 0 0 0 0 
0 0 0 0 0 0 0 0 0 
0 0 0 0 0 0 0 0 0 
0 0 0 0 0 0 0 0 0 
0 0 0 0 0 0 0 0 0 
0 0 0 0 0 0 0 0 0 
0 0 0 0 0 0 0 0 0 
0 0 0 0 0 0 0 0 0 
0 0 0 0 0 0 0 0 0 
0 0 0 0 0 0 0 0 0 
0 0 0 0 0 0 0 0 0 
0 0 0 0 0 0 0 0 0 
0 0 0 0 0 0 0 0 0 
0 0 0 0 0 0 0 0 0 
0 0 0 0 0 0 0 0 0 
0 0 0 0 0 0 0 0 0 
0 0 0 0 0 0 0 0 0 
0 0 0 0 0 0 0 0 0 
0 0 0 0 0 0 0 0 0 
0 0 0 0 0 0 0 0 0 
0 0 0 0 0 0 0 0 0 
0 0 0 0 0 0 0 0 0 
0 0 0 0 0 0 0 0 0 
0 0 0 0 0 0 0 0 0 
0 0 0 0 0 0 0 0 0 
0 0 0 0 0 0 0 0 0 
0 0 0 0 0 0 0 0 0 
0 0 0 0 0 0 0 0 0 
0 0 0 0 0 0 0 0 0 
0 0 0 0 0 0 0 0 0 
0 0 0 0 0 0 0 0 0 
0 0 0 0 0 0 0 0 0 
0 0 0 0 0 0 0 0 0 
0 0 0 0 0 0 0 0 0 
0 0 0 0 0 0 0 0 0 
0 0 0 0 0 0 0 0 0 
0 0 0 0 0 0 0 0 0 
0 0 0 0 0 0 0 0 0 
0 0 0 0 0 0 0 0 0 
0 0 0 0 0 0 0 0 0 
0 0 0 0 0 0 0 0 0 
0 0 0 0 0 0 0 0 0 
0 0 0 0 0 0 0 0 0 
0 0 0 0 0 0 0 0 0 
0 0 0 0 0 0 0 0 0 
0 0 0 0 0 0 0 0 0 
0 0 0 0 0 0 0 0 0 
0 0 0 0 0 0 0 0 0 
0 0 0 0 0 0 0 0 0 
0 0 0 0 0 0 0 0 0 
0 0 0 0 0 0 0 0 0 
0 0 0 0 0 0 0 0 0 
0 0 0 0 0 0 0 0 0 
0 0 0 0 0 0 0 0 0 
0 0 0 0 0 0 0 0 0 
0 0 0 0 0 0 0 0 0 
0 0 0 0 0 0 0 0 0 
0 0 0 0 0 0 0 0 0 
0 0 0 0 0 0 0 0 0 
0 0 0 0 0 0 0 0 0 
0 0 0 0 0 0 0 0 0 
0 0 0 0 0 0 0 0 0 
0 0 0 0 0 0 0 0 0 
0 0 0 0 0 0 0 0 0 
0 0 0 0 0 0 0 0 0 
0 0 0 0 0 0 0 0 0 
0 0 0 0 0 0 0 0 0 
0 0 0 0 0 0 0 0 0 
0 0 0 0 0 0 0 0 0 
0 0 0 0 0 0 0 0 0 
0 0 0 0 0 0 0 0 0 
0 0 0 0 0 0 0 0 0 
0 0 0 0 0 0 0 0 0 
0 0 0 0 0 0 0 0 0 
0 0 0 0 0 0 0 0 0 
0 0 0 0 0 0 0 0 0 
0 0 0 0 0 0 0 0 0 
0 0 0 0 0 0 0 0 0 
0 0 0 0 0 0 0 0 0 
0 0 0 0 0 0 0 0 0 
0 0 0 0 0 0 0 0 0 
0 0 0 0 0 0 0 0 0 
0 0 0 0 0 0 0 0 0 
0 0 0 0 0 0 0 0 0 
0 0 0 0 0 0 0 0 0 
0 0 0 0 0 0 0 0 0 
0 0 0 0 0 0 0 0 0 
0 0 0 0 0 0 0 0 0 
0 0 0 0 0 0 0 0 0 
0 0 0 0 0 0 0 0 0 
0 0 0 0 0 0 0 0 0 
0 0 0 0 0 0 0 0 0 
0 0 0 0 0 0 0 0 0 
0 0 0 0 0 0 0 0 0 
0 0 0 0 0 0 0 0 0 
0 0 0 0 0 0 0 0 0 
0 0 0 0 0 0 0 0 0 
0 0 0 0 0 0 0 0 0 
0 0 0 0 0 0 0 0 0 
0 0 0 0 0 0 0 0 0 
0 0 0 0 0 0 0 0 0 
0 0 0 0 0 0 0 0 0 
0 0 0 0 0 0 0 0 0 
0 0 0 0 0 0 0 0 0 
0 0 0 0 0 0 0 0 0 
0 0 0 0 0 0 0 0 0 
0 0 0 0 0 0 0 0 0 
0 0 0 0 0 0 0 0 0 
0 0 0 0 0 0 0 0 0 
0 0 0 0 0 0 0 0 0 
0 0 0 0 0 0 0 0 0 
0 0 0 0 0 0 0 0 0 
0 0 0 0 0 0 0 0 0 
0 0 0 0 0 0 0 0 0 
0 0 0 0 0 0 0 0 0 
0 0 0 0 0 0 0 0 0 
0 0 0 0 0 0 0 0 0 
0 0 0 0 0 0 0 0 0 
0 0 0 0 0 0 0 0 0 
0 0 0 0 0 0 0 0 0 
0 0 0 0 0 0 0 0 0 
0 0 0 0 0 0 0 0 0 
0 0 0 0 0 0 0 0 0 
0 0 0 0 0 0 0 0 0 
0 0 0 0 0 0 0 0 0 
0 0 0 0 0 0 0 0 0 
0 0 0 0 0 0 0 0 0 
0 0 0 0 0 0 0 0 0 
0 0 0 0 0 0 0 0 0 
0 0 0 0 0 0 0 0 0 
0 0 0 0 0 0 0 0 0 
0 0 0 0 0 0 0 0 0 
0 0 0 0 0 0 0 0 0 
0 0 0 0 0 0 0 0 0 
0 0 0 0 0 0 0 0 0 
0 0 0 0 0 0 0 0 0 
0 0 0 0 0 0 0 0 0 
0 0 0 0 0 0 0 0 0 
0 0 0 0 0 0 0 0 0 
0 0 0 0 0 0 0 0 0 
0 0 0 0 0 0 0 0 0 
0 0 0 0 0 0 0 0 0 
0 0 0 0 0 0 0 0 0 
0 0 0 0 0 0 0 0 0 
0 0 0 0 0 0 0 0 0 
0 0 0 0 0 0 0 0 0 
0 0 0 0 0 0 0 0 0 
0 0 0 0 0 0 0 0 0 
0 0 0 0 0 0 0 0 0 
0 0 0 0 0 0 0 0 0 
0 0 0 0 0 0 0 0 0 
0 0 0 0 0 0 0 0 0 
0 0 0 0 0 0 0 0 0 
0 0 0 0 0 0 0 0 0 
0 0 0 0 0 0 0 0 0 
0 0 0 0 0 0 0 0 0 
0 0 0 0 0 0 0 0 0 
0 0 0 0 0 0 0 0 0 
0 0 0 0 0 0 0 0 0 
0 0 0 0 0 0 0 0 0 
0 0 0 0 0 0 0 0 0 
0 0 0 0 0 0 0 0 0 
0 0 0 0 0 0 0 0 0 
0 0 0 0 0 0 0 0 0 
0 0 0 0 0 0 0 0 0 
0 0 0 0 0 0 0 0 0 
0 0 0 0 0 0 0 0 0 
0 0 0 0 0 0 0 0 0 
0 0 0 0 0 0 0 0 0 
0 0 0 0 0 0 0 0 0 
0 0 0 0 0 0 0 0 0 
0 0 0 0 0 0 0 0 0 
0 0 0 0 0 0 0 0 0 
0 0 0 0 0 0 0 0 0 
0 0 0 0 0 0 0 0 0 
0 0 0 0 0 0 0 0 0 
0 0 0 0 0 0 0 0 0 
0 0 0 0 0 0 0 0 0 
0 0 0 0 0 0 0 0 0 
0 0 0 0 0 0 0 0 0 
0 0 0 0 0 0 0 0 0 
0 0 0 0 0 0 0 0 0 
0 0 0 0 0 0 0 0 0 
0 0 0 0 0 0 0 0 0 
0 0 0 0 0 0 0 0 0 
0 0 0 0 0 0 0 0 0 
0 0 0 0 0 0 0 0 0 
0 0 0 0 0 0 0 0 0 
0 0 0 0 0 0 0 0 0 
0 0 0 0 0 0 0 0 0 
0 0 0 0 0 0 0 0 0 
0 0 0 0 0 0 0 0 0 
0 0 0 0 0 0 0 0 0 
0 0 0 0 0 0 0 0 0 
0 0 0 0 0 0 0 0 0 
0 0 0 0 0 0 0 0 0 
0 0 0 0 0 0 0 0 0 
0 0 0 0 0 0 0 0 0 
0 0 0 0 0 0 0 0 0 
0 0 0 0 0 0 0 0 0 
0 0 0 0 0 0 0 0 0 
0 0 0 0 0 0 0 0 0 
0 0 0 0 0 0 0 0 0 
0 0 0 0 0 0 0 0 0 
0 0 0 0 0 0 0 0 0 
0 0 0 0 0 0 0 0 0 
0 0 0 0 0 0 0 0 0 
0 0 0 0 0 0 0 0 0 
0 0 0 0 0 0 0 0 0 
0 0 0 0 0 0 0 0 0 
0 0 0 0 0 0 0 0 0 
0 0 0 0 0 0 0 0 0 
0 0 0 0 0 0 0 0 0 
0 0 0 0 0 0 0 0 0 
0 0 0 0 0 0 0 0 0 
0 0 0 0 0 0 0 0 0 
0 0 0 0 0 0 0 0 0 
0 0 0 0 0 0 0 0 0 
0 0 0 0 0 0 0 0 0 
0 0 0 0 0 0 0 0 0 
0 0 0 0 0 0 0 0 0 
0 0 0 0 0 0 0 0 0 
0 0 0 0 0 0 0 0 0 
0 0 0 0 0 0 0 0 0 
0 0 0 0 0 0 0 0 0 
0 0 0 
v 3 1000 double
0.18523979721 0.40219519449 0.045991663525 -0.21397066286 0.21775847671 -0.018519653729 -0.27509846849 0.42444049404 0.0096732224275 
0.0036414043005 0.01593355179 -0.044389607442 0.00077831326884 0.019195800243 -0.0058710928176 -0.071758836977 0.015643615241 -0.011316574416 
-0.071564971536 0.017936330699 -0.11051261772 0.057300983075 -0.012379801108 -0.0073941267594 0.0090409617163 -0.0046735324111 0.013646767197 
0.020736025324 0.034330071948 0.02274666231 -0.022324575272 0.014296632413 0.041195421392 -0.056628774748 -0.010895539032 -0.064552349913 
-0.011883334849 0.064313523958 -0.16961334529 -0.052257501245 -0.052220862948 -0.14395589489 0.040571181698 0.025998184739 -0.24556921522 
-0.024012926527 0.072435183932 -0.049643966374 -0.18313179345 0.081633967277 0.064589067934 -0.04781305462 0.03337756244 -0.069229678741 
0.025522002749 -0.064492806063 -0.015326487307 0.026751190754 0.01559216413 0.0060557779948 -0.014755179133 -0.0078689848917 0.0082633527124 
-0.040598318123 0.0022550005563 0.0032351137783 -0.022453934484 0.0025755992127 -0.001215322914 -0.073180902272 0.076705606814 -0.061274922491 
0.037692746646 0.07730307177 -0.078267196725 0.024730963715 0.036552978094 -0.0084236303118 -0.00078720803678 0.043153314004 0.027291079183 
-0.029835838315 0.033584058402 -0.05727804042 -0.25766671684 -0.14362547482 0.00091926375821 -0.031032070266 0.015199773762 -0.030043026537 
0.013237685319 -0.010756400989 0.02311158331 -0.018114503803 -0.073540885816 0.011459262874 -0.018800182564 -0.03181649745 0.011974707688 
-0.023456881151 -0.023740926369 -0.021989318915 -0.014439074227 0.0023195588046 0.0090729513739 -0.064990110669 0.055437825037 -0.024403673455 
0.047104405204 -0.01518962025 0.022589047305 -0.0085603320795 0.0087819577127 0.037628549292 0.03765443932 0.018448722122 0.021560202045 
-0.019099520492 -0.03842392956 -0.0023229441311 -0.015445587548 -0.010970250754 -0.024764266588 0.038994150756 -0.053810153176 0.021084900134 
0.011802498317 -0.046316690263 0.087763682463 0.027549678802 -0.023920488035 0.073246058481 0.0074244417172 -0.032972050095 0.091044040543 
-0.052604985076 0.00045106385297 0.050707541022 -0.022250001473 -0.0013513635832 -0.031367679399 -0.017540882929 -0.036985487058 -0.013575492744 
-0.064053864499 -0.050859918738 0.018443090701 -0.047903519028 -0.001736936758 -0.0097199803431 -0.30762627204 -0.22204188241 -0.0068328732324 
0.0081573377065 -0.031989010855 -0.024031798321 0.024518359181 -0.03998160343 0.0060168051759 -0.14966646341 -0.071588562187 -0.0081263214807 
-0.15440832442 0.22601249378 -0.096693134056 0.012401808374 -0.028372469042 -0.05219088613 -0.051149736299 -0.019111368886 -0.032730054798 
0.020693106626 -0.06102270439 -0.0022921156276 0.010587284395 -0.0019197882537 -0.024544833903 0.0077047637879 -0.039376279161 -0.069139191828 
-0.052186192604 -0.027672628935 -0.1175702694 0.0057369514159 -0.039186061294 0.029555948475 0.032659774704 -0.013033555376 -0.022629879528 
-0.0058533896332 -0.019290105447 -0.025667665131 -0.067698606878 -0.04462237024 -0.051698924365 -0.10604403523 -0.042771712582 -0.081357685558 
0.025819666453 -0.038802409894 -0.026691290515 0.059910524409 -0.017498951972 -0.061796230339 0.034357917828 0.059720771703 -0.057372759497 
-0.076121448773 0.009213149624 0.072731172324 0.0012659705703 -0.011867921601 -0.0037847270896 -0.026258878234 0.01759980779 0.012548773479 
-0.00048739587122 0.010452108369 -0.11353894309 -0.045728662064 -0.016889432426 -0.008485371857 -0.035799404552 -0.028543264726 -0.0033764063916 
0.014207127916 -0.018576654914 -0.046229207199 -0.035633164267 -0.0066103851335 -0.076141215429 -0.038647583472 0.0065721606828 0.045735058518 
-0.22433974538 -0.044600955307 0.031536710107 -0.39779444523 0.055572415256 -0.040735529584 -0.019835783407 0.027861608656 0.023994652152 
-0.057849350511 0.042070095685 -0.029246048643 -0.046372444301 -0.024906216993 0.095037562511 0.013971768314 -0.045734302141 0.016297326444 
0.00015464796145 0.0061986587803 0.038315572577 0.011714893542 0.025125689218 0.00051161730628 0.0038611297491 -0.011482493268 -0.0069122758299 
-0.013634325254 -0.0059935379848 0.067138763063 -0.032832419475 -0.009742917017 0.032239781231 0.018109610447 0.035899160976 0.027710315552 
-0.0058390119511 0.013905112124 0.036854257323 -0.0033238194789 0.028830960602 0.0077805593169 0.024629774006 0.014272617372 -0.017602296053 
-0.30410046763 -0.16707042501 -0.051726012145 -0.012181256788 -0.031101379867 0.0388998085 -0.0033384110728 -0.031426204838 -0.018133803671 
0.04376768965 -0.037747099793 0.05115999065 -0.020057336777 -0.0050999140922 0.12019678258 -0.015711071501 -0.018460766575 0.075470449238 
-0.015117771319 -0.0093901319009 0.013148521203 0.010735479503 -0.025720172171 -0.039051959792 0.031910729112 -0.006136940107 0.0017960856561 
0.023017333681 0.0084652315475 0.0040466908689 -0.01186688603 -0.037149307174 0.066910781146 -0.0065361158996 -0.012206427483 0.077334510531 
0.032632656641 -0.018819729639 0.016817406796 -0.045551331691 -0.064333309165 -0.005115802088 -0.029772334423 -0.027393216724 0.031422566318 
-0.015376638698 -0.0081777542987 0.013864377921 -0.017578137586 -0.011346504118 0.094900583354 -0.030209501687 -0.011946240808 -0.0055242760741 
0.019647371555 -0.055431086855 -0.021364481884 0.0032188377557 0.0037281274117 -0.045554439017 0.017597021393 0.011952233777 0.01400264798 
0.023234249984 0.0037122823939 0.020366089637 0.034685360523 -0.00132058531 -0.023935180477 0.020670171578 -0.005847674427 -0.028419891031 
0.023841915829 -0.057450272171 -0.043733248131 -0.019904528056 -0.061108181967 -0.0094294059072 -0.032087720821 -0.055105042599 -0.086366478515 
-0.01462734261 -0.11345461594 0.0012966190095 0.020776309533 -0.028050936861 0.12804042781 0.03269873001 -0.063022968325 0.01166457527 
-0.1320294607 -0.07778111936 -0.031785715964 -0.10949048648 0.0264034816 -0.096469417943 0.016166154183 -0.09703309783 0.19081131119 
0.10937679994 -0.079239558365 0.0068263034235 0.036999864582 -0.030028877458 -0.0038744363931 -0.026495003361 -0.040691715373 0.10141683541 
0.033687599141 -0.01772803608 0.04628258444 -0.016785887822 0.0082358272167 0.01700123071 -0.15401877058 -0.059819639265 -0.002534452924 
-0.099591218744 -0.059800713106 -0.11207991252 -0.017857892194 -0.084820417749 0.0080850889825 0.047260993362 0.00063980609898 -0.03860592011 
-0.013252115498 0.010570074013 0.0088823133374 0.038196596281 -0.09566996986 -0.031809584941 -5.5804788114e-05 -0.014176854179 0.050149016902 
0.048819287572 0.0029787684229 0.067821025144 0.026865590936 0.15098286519 -0.14544975552 0.010290639397 -0.0180756709 0.0034552311808 
-0.052734325578 0.019446749655 0.049945743438 -0.01275871436 -0.030365526059 -0.049146928863 -0.0019957189855 -0.020242701241 0.093471193926 
0.025394374488 -0.0085097740642 0.060459762982 -0.0047349693514 -0.002216218832 0.01320024376 0.069549750834 0.0069660700225 0.057572499921 
-0.0027139711645 0.0015641197215 0.010966314898 -1.4608158865e-05 -0.01354294439 0.018139208114 0.03972392818 0.024532567613 0.015031669674 
0.035802654917 -0.011613681905 -0.0058317436087 -0.019546061537 -0.020291392455 0.073190692678 -0.042346810326 0.026122438431 0.10644376926 
0.030962958742 0.076497582623 0.047312031515 -0.0031991781099 -0.033338644687 0.034748966737 -0.026497408818 -8.7658050785e-06 0.010952035979 