# vtk DataFile Version 4.1
Generated by LIGGGHTS
ASCII
DATASET POLYDATA
POINTS 1000 float
0.00671272 -0.0407099 0.00256372 0.00283688 -0.03823 0.00169766 0.00767908 -0.0298182 0.00152487 
0.00604412 -0.0160209 0.00157828 0.00227418 -0.013226 0.00155558 0.00511871 -0.013323 0.00176214 
0.00791166 -0.0138782 0.00160025 0.0220717 -0.0127879 0.00148959 0.00257954 -0.0104052 0.0017076 
0.00543448 -0.0104492 0.00155889 0.00830167 -0.0103741 0.00153449 0.0111453 -0.0102933 0.00149123 
0.0137452 -0.0114479 0.00155949 0.0166407 -0.0125276 0.00190365 0.0193898 -0.0118159 0.00159208 
0.0230393 -0.0102659 0.00243492 0.0309578 -0.01014 0.00207405 -0.00625378 -0.00761371 0.0014995 
-0.00439914 -0.00958551 0.00235162 -0.000223757 -0.00986903 0.00155861 0.00399547 -0.00795879 0.00166703 
0.00683151 -0.00795468 0.00171723 0.00966769 -0.00784277 0.00153989 0.0124737 -0.00783975 0.00209038 
0.015069 -0.00893309 0.00155048 0.0204146 -0.00919648 0.00197852 0.0255091 -0.00893263 0.00188006 
0.0282969 -0.00931604 0.00150267 0.032361 -0.00771551 0.00154852 -0.0334819 -0.00718628 0.00159768 
-0.00346377 -0.00699553 0.00153742 -0.000650962 -0.00710778 0.00209873 0.00813238 -0.00542386 0.00160617 
0.0130455 -0.00510043 0.00151247 0.0156811 -0.006157 0.00153135 0.0182445 -0.00740137 0.00150151 
0.0238328 -0.00663869 0.00185889 0.0272171 -0.0066687 0.00154784 0.0313697 -0.00505331 0.00169822 
-0.000795299 -0.00268347 0.00150374 0.00639713 -0.00315025 0.00158498 0.0112358 -0.0029198 0.00186147 
0.0176243 -0.00408144 0.00151127 0.0203235 -0.00366905 0.00231224 0.0230647 -0.00390544 0.00161076 
0.0258463 -0.00422763 0.00209506 0.028651 -0.00420028 0.00156794 -0.00484769 -0.000426942 0.00210075 
-0.00202185 -0.000273199 0.00242932 0.00414351 -0.00139502 0.00158979 0.00678534 -0.000319937 0.00157832 
0.0140985 -7.07569e-05 0.00201069 0.0176279 -0.00123633 0.00148572 0.0227232 -0.00106426 0.00166214 
0.03066 -0.00243461 0.00254154 0.0348785 -0.00184871 0.00179469 0.0039224 -0.040862 0.00195045 
0.00351319 -0.0154841 0.00275692 0.00571822 -0.0173079 0.00410951 0.0023084 -0.0134927 0.00440302 
0.00645896 -0.0145507 0.00398214 0.00921846 -0.0128238 0.00388872 0.0146692 -0.0132739 0.00382139 
0.000884094 -0.0110705 0.003893 0.00412058 -0.0113374 0.003927 0.00713864 -0.0110107 0.00459686 
0.0119937 -0.0123184 0.00362055 0.010201 -0.0101545 0.00419321 0.0183078 -0.012154 0.00419686 
0.0214103 -0.0118961 0.00411157 -0.00532362 -0.0075906 0.00418826 -0.00254386 -0.00814021 0.00396941 
0.00270807 -0.00885912 0.00409868 0.0136595 -0.00902294 0.00439776 0.016146 -0.00771878 0.00388815 
0.0175135 -0.00991106 0.00263003 0.0189795 -0.00800098 0.00418608 0.0215865 -0.00908448 0.00458375 
0.0244332 -0.00885549 0.00451658 0.0272562 -0.00890976 0.00413452 -0.0338474 -0.00721155 0.00442911 
-0.0360087 -0.00647008 0.00272049 -0.0313201 -0.00648046 0.00332725 -0.00733898 -0.00572973 0.00330888 
-0.000243907 -0.00675011 0.0049202 -0.00230401 -0.00531837 0.00355005 0.00293017 -0.00606432 0.00349979 
0.00604767 -0.00687374 0.00424907 0.0137179 -0.00619423 0.00406994 0.0193361 -0.00517844 0.00452443 
0.0212448 -0.00669794 0.00304731 0.0244894 -0.00599243 0.00456657 0.0273396 -0.00605141 0.00432329 
0.029789 -0.00720279 0.00269469 0.0321594 -0.00639904 0.00408126 -0.0335558 -0.00472836 0.00304511 
-0.00581248 -0.00342459 0.00406607 -0.0033624 -0.00278307 0.00275327 -0.000994086 -0.00253282 0.00433092 
0.000452755 -0.00467576 0.00310973 0.00182751 -0.00272566 0.00466126 0.00429426 -0.00354204 0.00346777 
0.00696665 -0.00429131 0.00511435 0.00872738 -0.00312798 0.00319847 0.0133185 -0.00336681 0.003752 
0.0159498 -0.00443865 0.00380047 0.0181608 -0.00263833 0.00390797 0.0213499 -0.00319659 0.00494241 
0.0241038 -0.00320117 0.00416034 0.0298479 -0.00470026 0.00409626 -0.00740559 -0.00158842 0.00256881 
0.000744946 -0.000738596 0.00291843 0.006404 -0.00170213 0.00403486 0.0133489 -0.000152641 0.00478069 
0.0166785 -0.000173875 0.00393529 0.0201198 -0.000871691 0.00281907 0.0268682 -0.00252323 0.00413312 
0.0287835 -0.000525075 0.00348246 0.0325652 -0.00103983 0.00415724 -0.0318837 -0.0301555 0.00337845 
0.00418604 -0.0153453 0.00551879 0.00542241 -0.0128135 0.00599939 0.00826242 -0.0142406 0.0061828 
0.011018 -0.0135358 0.00600199 -0.000235206 -0.0122319 0.00625675 0.00247093 -0.0113131 0.00624217 
0.010682 -0.0108755 0.00691978 0.0134315 -0.0120218 0.00606492 0.0175836 -0.0122693 0.00694445 
0.0198354 -0.0107152 0.0061641 0.0245288 -0.0103352 0.00695138 -0.00507547 -0.00763904 0.00703014 
-0.000701034 -0.00948548 0.00566566 -0.00222987 -0.00758864 0.00714444 0.00176054 -0.00861122 0.0067963 
0.00512796 -0.00923665 0.00557085 0.00905932 -0.00777167 0.0053289 0.0116783 -0.008267 0.00631794 
0.0172164 -0.0098494 0.00546084 0.0151561 -0.00834811 0.0067318 0.021937 -0.00923708 0.00741272 
-0.0042999 -0.00532464 0.00557415 0.00172845 -0.00575746 0.0067538 0.00434668 -0.00516189 0.00580124 
0.00662149 -0.00641305 0.00699336 0.00938859 -0.005991 0.00756217 0.0115984 -0.00543498 0.00584434 
0.0218518 -0.00590615 0.0057011 0.0245958 -0.0074546 0.00700926 -0.00829274 -0.00439834 0.00561556 
-0.00594289 -0.00342436 0.00693069 -0.00354826 -0.0025785 0.00559499 -0.00161728 -0.0045827 0.00620696 
0.00330273 -0.00284788 0.00710672 0.00956311 -0.00342103 0.00591789 0.0126387 -0.00284261 0.00645675 
0.0147227 -0.00478843 0.00634604 0.0192992 -0.00358717 0.00689544 0.0233823 -0.00380523 0.00685498 
0.0260989 -0.00430442 0.00622256 0.0289028 -0.00423437 0.00676323 -0.00757815 -0.00164883 0.0054094 
0.000134653 -0.00245163 0.00694266 0.00666974 -0.000225788 0.00644951 0.0152588 -0.00213678 0.00545157 
0.0178087 -0.00122042 0.00635921 0.0226996 -0.00110322 0.00633733 0.0272793 -0.00194622 0.00731553 
0.030224 -0.00215308 0.0053417 0.00368197 -0.0129291 0.00826797 0.00622247 -0.0140413 0.00901605 
0.0113256 -0.0129241 0.00878469 -0.00284086 -0.0103768 0.00734007 0.00312309 -0.0101815 0.00877274 
0.0055896 -0.01133 0.00966664 0.00754305 -0.0118975 0.00767685 0.0119668 -0.0101876 0.00936843 
0.0168241 -0.0106837 0.00918033 0.000178592 -0.00900367 0.00914165 0.0062401 -0.00879191 0.00851679 
0.00971966 -0.00867668 0.0083991 0.013169 -0.00770278 0.00867372 0.0159138 -0.00776696 0.00943065 
0.0194628 -0.00963051 0.00879112 -0.00718757 -0.0058861 0.007767 -0.00302097 -0.00658302 0.00968456 
-0.000497443 -0.00580206 0.00854323 0.00398738 -0.00715142 0.00780766 0.00658327 -0.00585045 0.00977048 
0.0200769 -0.00710709 0.00758971 0.0225647 -0.00602022 0.00845474 0.027392 -0.0066751 0.00711058 
-0.00856256 -0.0026959 0.00786023 -0.00369526 -0.00404542 0.00861297 -0.00047782 -0.00281009 0.00968397 
0.00369547 -0.00348742 0.00986393 0.00753216 -0.00387084 0.00789772 0.0102733 -0.0035117 0.00867919 
0.0127454 -0.0049094 0.00840681 0.0126465 -0.00255842 0.00999979 0.0166968 -0.0032106 0.00806788 
0.018888 -0.00257712 0.00978041 0.0257338 -0.00363713 0.0089965 0.0291004 -0.00291582 0.00928657 
-0.0113108 -0.00235385 0.00717737 -0.00506653 -0.00155868 0.00894199 -0.0024039 -0.00158014 0.00799107 
0.00116756 -0.000619852 0.00884544 0.00559303 -0.00186304 0.00850762 0.0144616 -0.00143034 0.00810678 
0.0170192 -0.000556755 0.00904239 0.0202556 -0.00104401 0.00780597 0.00426423 -0.0134706 0.0110026 
0.0092153 -0.0138101 0.01049 0.00837188 -0.0109103 0.0101737 0.0145075 -0.00992311 0.0106751 
-0.00435952 -0.00908763 0.00937676 0.00253119 -0.00776433 0.0101949 0.0109495 -0.00794984 0.0108621 
0.0136087 -0.00799039 0.0125705 0.0179323 -0.00889282 0.0110938 0.0219125 -0.00975175 0.0102409 
-0.00951817 -0.00549352 0.00932755 -0.000582353 -0.00707251 0.0111035 0.00227134 -0.00573433 0.0121959 
0.00935446 -0.00558988 0.0104027 0.0078133 -0.00768409 0.0115776 0.0141363 -0.00592455 0.0106801 
0.0166858 -0.00644447 0.0118528 0.0192515 -0.00649978 0.0102544 0.0232796 -0.00734159 0.0108596 
-0.00304256 -0.00433037 0.0114302 -0.000252112 -0.00438453 0.0120434 0.00501158 -0.00492549 0.0119532 
0.0074652 -0.00356472 0.0112479 0.010294 -0.00314366 0.0115245 0.0207836 -0.00475284 0.0119179 
0.0235862 -0.0045111 0.0106404 -0.0103515 -0.00153734 0.00974593 -0.00648034 -0.00018759 0.0109902 
0.00166529 -0.00234131 0.011502 0.00758682 -0.000715229 0.011619 0.0154669 -0.00243157 0.0105544 
0.0205236 -0.00191131 0.0120219 0.0249826 -0.000902116 0.00870548 0.0209408 -0.0106006 0.0127844 
0.00100143 -0.00919663 0.0121502 -0.00699139 -0.00433835 0.0101372 0.0174649 -0.00371367 0.0121351 
0.0051434 -0.0020886 0.0120776 0.0114777 -0.00135659 0.0134218 -0.036539 -0.0223838 0.037026 
-0.0093968 0.00016009 0.00152153 -0.00748131 0.00208101 0.00242728 -0.00349027 0.00201308 0.00151461 
0.0165103 0.00138962 0.00155534 0.0216334 0.00149687 0.00231818 0.0329362 0.000249078 0.00164015 
-0.0100169 0.00294138 0.00148198 -0.00556496 0.00398308 0.00150396 0.0161446 0.0041343 0.00227848 
0.0250239 0.00325346 0.00153939 0.0274509 0.00441011 0.00250885 0.0337553 0.0029014 0.00233873 
-0.0118836 0.00733007 0.00195582 -0.00628866 0.00677843 0.00154928 0.000421792 0.00604099 0.00154311 
0.0114068 0.00695416 0.00154681 0.0183419 0.00583225 0.00156015 0.0282052 0.00714504 0.00227606 
0.0309638 0.00640651 0.00232447 0.0346271 0.00556776 0.00183135 -0.00366736 0.00992947 0.00223239 
0.0012259 0.00877201 0.00153451 0.00896107 0.00851903 0.00154449 0.0114713 0.00980081 0.00162807 
0.0332611 0.0080621 0.00200258 -0.0119792 0.0101948 0.0020219 -0.00979451 0.0119672 0.00148919 
-0.00706646 0.0114049 0.00217355 -0.000984855 0.0105755 0.00147527 0.00357033 0.0102473 0.0022191 
0.00627934 0.0110067 0.00158312 0.00911142 0.0113982 0.00164499 0.0139877 0.0110848 0.00194869 
0.0192378 0.0119285 0.0019886 0.024085 0.0115385 0.00201869 0.026489 0.0100728 0.00160068 
0.0293242 0.010446 0.00147836 -0.0142989 0.0143519 0.00212843 -0.011447 0.0141621 0.00224482 
-0.0087224 0.014626 0.00150897 0.00423992 0.0129788 0.00187817 0.00956272 0.0142178 0.00189156 
0.016811 0.0133575 0.00150053 0.021233 0.013982 0.00203687 0.0240593 0.0143662 0.00172489 
[...]
POINT_DATA 1000
FIELD FieldData 7
id 1 1000 int
10 41 18 49 266 25 280 3 263 
22 12 290 285 297 53 27 32 302 
36 282 268 251 277 295 37 48 21 
9 141 23 17 2 16 50 30 46 
15 39 247 43 104 38 33 7 19 
274 309 191 107 235 6 378 138 164 
279 248 24 254 1 252 52 262 504 
298 256 535 301 520 296 272 270 58 
306 258 13 56 45 294 264 260 51 
29 40 259 253 28 287 278 31 273 
4 281 305 34 65 83 304 205 54 
47 303 308 265 44 8 5 42 289 
261 292 291 11 35 434 67 14 527 
554 689 20 26 267 551 558 509 531 
555 544 543 501 533 549 524 525 508 
548 552 526 257 518 521 293 534 283 
528 532 286 284 503 507 506 276 255 
510 275 300 269 556 307 530 788 529 
536 158 299 288 547 807 511 515 810 
766 761 769 787 789 774 782 765 776 
755 516 797 546 502 757 522 540 542 
538 512 767 519 523 505 764 545 539 
517 557 513 790 752 801 804 806 541 
648 537 271 550 514 775 773 805 802 
768 796 777 795 786 803 784 778 798 
553 808 758 791 800 763 759 753 762 
783 793 772 785 792 771 779 799 754 
770 809 751 781 794 780 756 760 57 
193 339 102 55 186 136 357 199 161 
131 242 218 363 89 429 112 331 384 
425 234 237 69 63 206 433 455 227 
229 118 243 123 116 211 238 157 130 
149 178 223 175 204 84 62 155 203 
165 80 169 194 183 472 154 249 179 
222 90 310 120 87 332 117 226 86 
127 182 110 64 430 105 208 407 404 
75 231 399 174 159 79 124 184 77 
60 103 195 484 367 98 236 360 151 
177 143 239 156 487 431 392 496 190 
139 749 95 401 111 114 233 91 416 
397 323 113 389 482 72 66 685 160 
393 214 499 209 68 344 413 202 330 
328 380 724 96 232 359 423 94 212 
314 445 563 119 460 727 419 313 101 
85 122 73 213 189 333 147 99 92 
317 128 210 246 145 220 241 180 352 
448 142 185 78 473 88 198 150 61 
100 408 166 428 415 490 93 311 163 
240 462 492 570 346 427 471 387 146 
59 221 115 201 385 483 394 391 82 
126 245 196 109 106 412 495 379 465 
347 435 140 436 167 97 364 376 366 
315 464 491 188 341 451 740 437 422 
463 418 402 390 447 349 170 197 162 
225 176 439 224 153 334 76 388 219 
81 148 459 125 603 329 640 565 168 
370 320 134 192 207 200 679 709 457 
369 132 477 383 596 688 698 449 486 
468 382 129 655 675 642 632 678 732 
365 673 666 629 452 450 454 338 730 
680 335 398 611 438 173 172 135 355 
362 250 358 625 475 626 707 498 152 
70 466 470 396 456 561 343 476 340 
350 215 405 181 342 622 598 692 494 
74 480 137 244 368 373 461 646 411 
377 337 420 348 230 371 386 674 409 
406 414 481 474 594 714 395 336 444 
741 467 319 575 400 722 620 322 728 
590 560 171 581 702 479 318 485 750 
618 432 356 668 500 615 592 616 71 
564 442 898 228 426 381 372 638 623 
458 922 326 353 735 325 571 567 613 
577 663 945 652 121 441 573 572 351 
876 601 695 469 927 981 992 967 862 
703 417 440 747 645 915 701 566 847 
890 936 744 579 670 569 593 738 930 
589 935 979 316 656 591 726 664 607 
453 493 619 718 653 917 410 658 609 
446 912 870 606 354 217 108 345 403 
489 682 654 745 650 715 562 361 421 
497 488 617 599 610 624 630 700 424 
710 723 568 634 748 321 614 327 312 
578 828 660 733 739 585 588 743 933 
375 672 691 697 816 586 600 587 621 
595 665 597 576 643 651 644 559 818 
712 716 602 628 639 662 720 988 604 
734 608 708 925 746 989 631 686 681 
848 690 635 696 641 729 693 699 906 
919 612 574 932 704 877 929 974 959 
649 717 961 886 921 984 971 835 647 
633 711 659 731 869 840 837 942 900 
882 814 627 684 843 705 582 817 871 
964 903 895 856 855 669 637 924 812 
953 943 657 859 683 584 374 671 736 
914 580 954 823 867 719 742 324 908 
824 897 902 583 976 957 713 949 478 
881 963 836 721 948 968 826 905 694 
676 636 996 667 834 737 970 857 838 
725 845 993 852 889 893 880 944 822 
947 987 865 875 687 885 854 868 819 
661 940 952 980 986 827 830 999 858 
978 874 878 962 811 821 913 133 860 
853 879 861 850 928 958 909 216 907 
825 896 841 997 916 833 891 931 911 
937 901 985 990 926 975 849 910 813 
863 888 873 883 677 866 951 969 983 
842 960 955 920 706 605 950 846 815 
934 894 1000 977 938 982 995 956 966 
844 904 973 923 994 831 965 899 829 
972 887 820 991 832 892 839 946 939 
443 941 998 872 864 851 884 918 144 
187 
type 1 1000 int
1 1 1 1 1 1 1 1 1 
1 1 1 1 1 1 1 1 1 
1 1 1 1 1 1 1 1 1 
1 1 1 1 1 1 1 1 1 
1 1 1 1 1 1 1 1 1 
1 1 1 1 1 1 1 1 1 
1 1 1 1 1 1 1 1 1 
1 1 1 1 1 1 1 1 1 
1 1 1 1 1 1 1 1 1 
1 1 1 1 1 1 1 1 1 
1 1 1 1 1 1 1 1 1 
1 1 1 1 1 1 1 1 1 
1 1 1 1 1 1 1 1 1 
1 1 1 1 1 1 1 1 1 
1 1 1 1 1 1 1 1 1 
1 1 1 1 1 1 1 1 1 
1 1 1 1 1 1 1 1 1 
1 1 1 1 1 1 1 1 1 
1 1 1 1 1 1 1 1 1 
1 1 1 1 1 1 1 1 1 
1 1 1 1 1 1 1 1 1 
1 1 1 1 1 1 1 1 1 
1 1 1 1 1 1 1 1 1 
1 1 1 1 1 1 1 1 1 
1 1 1 1 1 1 1 1 1 
1 1 1 1 1 1 1 1 1 
1 1 1 1 1 1 1 1 1 
1 1 1 1 1 1 1 1 1 
1 1 1 1 1 1 1 1 1 
1 1 1 1 1 1 1 1 1 
1 1 1 1 1 1 1 1 1 
1 1 1 1 1 1 1 1 1 
1 1 1 1 1 1 1 1 1 
1 1 1 1 1 1 1 1 1 
1 1 1 1 1 1 1 1 1 
1 1 1 1 1 1 1 1 1 
1 1 1 1 1 1 1 1 1 
1 1 1 1 1 1 1 1 1 
1 1 1 1 1 1 1 1 1 
1 1 1 1 1 1 1 1 1 
1 1 1 1 1 1 1 1 1 
1 1 1 1 1 1 1 1 1 
1 1 1 1 1 1 1 1 1 
1 1 1 1 1 1 1 1 1 
1 1 1 1 1 1 1 1 1 
1 1 1 1 1 1 1 1 1 
1 1 1 1 1 1 1 1 1 
1 1 1 1 1 1 1 1 1 
1 1 1 1 1 1 1 1 1 
1 1 1 1 1 1 1 1 1 
1 1 1 1 1 1 1 1 1 
1 1 1 1 1 1 1 1 1 
1 1 1 1 1 1 1 1 1 
1 1 1 1 1 1 1 1 1 
1 1 1 1 1 1 1 1 1 
1 1 1 1 1 1 1 1 1 
1 1 1 1 1 1 1 1 1 
1 1 1 1 1 1 1 1 1 
1 1 1 1 1 1 1 1 1 
1 1 1 1 1 1 1 1 1 
1 1 1 1 1 1 1 1 1 
1 1 1 1 1 1 1 1 1 
1 1 1 1 1 1 1 1 1 
1 1 1 1 1 1 1 1 1 
1 1 1 1 1 1 1 1 1 
1 1 1 1 1 1 1 1 1 
1 1 1 1 1 1 1 1 1 
1 1 1 1 1 1 1 1 1 
1 1 1 1 1 1 1 1 1 
1 1 1 1 1 1 1 1 1 
1 1 1 1 1 1 1 1 1 
1 1 1 1 1 1 1 1 1 
1 1 1 1 1 1 1 1 1 
1 1 1 1 1 1 1 1 1 
1 1 1 1 1 1 1 1 1 
1 1 1 1 1 1 1 1 1 
1 1 1 1 1 1 1 1 1 
1 1 1 1 1 1 1 1 1 
1 1 1 1 1 1 1 1 1 
1 1 1 1 1 1 1 1 1 
1 1 1 1 1 1 1 1 1 
1 1 1 1 1 1 1 1 1 
1 1 1 1 1 1 1 1 1 
1 1 1 1 1 1 1 1 1 
1 1 1 1 1 1 1 1 1 
1 1 1 1 1 1 1 1 1 
1 1 1 1 1 1 1 1 1 
1 1 1 1 1 1 1 1 1 
1 1 1 1 1 1 1 1 1 
1 1 1 1 1 1 1 1 1 
1 1 1 1 1 1 1 1 1 
1 1 1 1 1 1 1 1 1 
1 1 1 1 1 1 1 1 1 
1 1 1 1 1 1 1 1 1 
1 1 1 1 1 1 1 1 1 
1 1 1 1 1 1 1 1 1 
1 1 1 1 1 1 1 1 1 
1 1 1 1 1 1 1 1 1 
1 1 1 1 1 1 1 1 1 
1 1 1 1 1 1 1 1 1 
1 1 1 1 1 1 1 1 1 
1 1 1 1 1 1 1 1 1 
1 1 1 1 1 1 1 1 1 
1 1 1 1 1 1 1 1 1 
1 1 1 1 1 1 1 1 1 
1 1 1 1 1 1 1 1 1 
1 1 1 1 1 1 1 1 1 
1 1 1 1 1 1 1 1 1 
1 1 1 1 1 1 1 1 1 
1 1 1 1 1 1 1 1 1 
1 1 1 1 1 1 1 1 1 
1 
i 3 1000 int
0 0 0 0 0 0 0 0 0 
0 0 0 0 0 0 0 0 0 
0 0 0 0 0 0 0 0 0 
0 0 0 0 0 0 0 0 0 
0 0 0 0 0 0 0 0 0 
0 0 0 0 0 0 0 0 0 
0 0 0 0 0 0 0 0 0 
0 0 0 0 0 0 0 0 0 
0 0 0 0 0 0 0 0 0 
0 0 0 0 0 0 0 0 0 
0 0 0 0 0 0 0 0 0 
0 0 0 0 0 0 0 0 0 
0 0 0 0 0 0 0 0 0 
0 0 0 0 0 0 0 0 0 
0 0 0 0 0 0 0 0 0 
0 0 0 0 0 0 0 0 0 
0 0 0 0 0 0 0 0 0 
0 0 0 0 0 0 0 0 0 
0 0 0 0 0 0 0 0 0 
0 0 0 0 0 0 0 0 0 
0 0 0 0 0 0 0 0 0 
0 0 0 0 0 0 0 0 0 
0 0 0 0 0 0 0 0 0 
0 0 0 0 0 0 0 0 0 
0 0 0 0 0 0 0 0 0 
0 0 0 0 0 0 0 0 0 
0 0 0 0 0 0 0 0 0 
0 0 0 0 0 0 0 0 0 
0 0 0 0 0 0 0 0 0 
0 0 0 0 0 0 0 0 0 
0 0 0 0 0 0 0 0 0 
0 0 0 0 0 0 0 0 0 
0 0 0 0 0 0 0 0 0 
0 0 0 0 0 0 0 0 0 
0 0 0 0 0 0 0 0 0 
0 0 0 0 0 0 0 0 0 
0 0 0 0 0 0 0 0 0 
0 0 0 0 0 0 0 0 0 
0 0 0 0 0 0 0 0 0 
0 0 0 0 0 0 0 0 0 
0 0 0 0 0 0 0 0 0 
0 0 0 0 0 0 0 0 0 
0 0 0 0 0 0 0 0 0 
0 0 0 0 0 0 0 0 0 
0 0 0 0 0 0 0 0 0 
0 0 0 0 0 0 0 0 0 
0 0 0 0 0 0 0 0 0 
0 0 0 0 0 0 0 0 0 
0 0 0 0 0 0 0 0 0 
0 0 0 0 0 0 0 0 0 
0 0 0 0 0 0 0 0 0 
0 0 0 0 0 0 0 0 0 
0 0 0 0 0 0 0 0 0 
0 0 0 0 0 0 0 0 0 
0 0 0 0 0 0 0 0 0 
0 0 0 0 0 0 0 0 0 
0 0 0 0 0 0 0 0 0 
0 0 0 0 0 0 0 0 0 
0 0 0 0 0 0 0 0 0 
0 0 0 0 0 0 0 0 0 
0 0 0 0 0 0 0 0 0 
0 0 0 0 0 0 0 0 0 
0 0 0 0 0 0 0 0 0 
0 0 0 0 0 0 0 0 0 
0 0 0 0 0 0 0 0 0 
0 0 0 0 0 0 0 0 0 
0 0 0 0 0 0 0 0 0 
0 0 0 0 0 0 0 0 0 
0 0 0 0 0 0 0 0 0 
0 0 0 0 0 0 0 0 0 
0 0 0 0 0 0 0 0 0 
0 0 0 0 0 0 0 0 0 
0 0 0 0 0 0 0 0 0 
0 0 0 0 0 0 0 0 0 
0 0 0 0 0 0 0 0 0 
0 0 0 0 0 0 0 0 0 
0 0 0 0 0 0 0 0 0 
0 0 0 0 0 0 0 0 0 
0 0 0 0 0 0 0 0 0 
0 0 0 0 0 0 0 0 0 
0 0 0 0 0 0 0 0 0 
0 0 0 0 0 0 0 0 0 
0 0 0 0 0 0 0 0 0 
0 0 0 0 0 0 0 0 0 
0 0 0 0 0 0 0 0 0 
0 0 0 0 0 0 0 0 0 
0 0 0 0 0 0 0 0 0 
0 0 0 0 0 0 0 0 0 
0 0 0 0 0 0 0 0 0 
0 0 0 0 0 0 0 0 0 
0 0 0 0 0 0 0 0 0 
0 0 0 0 0 0 0 0 0 
0 0 0 0 0 0 0 0 0 
0 0 0 0 0 0 0 0 0 
0 0 0 0 0 0 0 0 0 
0 0 0 0 0 0 0 0 0 
0 0 0 0 0 0 0 0 0 
0 0 0 0 0 0 0 0 0 
0 0 0 0 0 0 0 0 0 
0 0 0 0 0 0 0 0 0 
0 0 0 0 0 0 0 0 0 
0 0 0 0 0 0 0 0 0 
0 0 0 0 0 0 0 0 0 
0 0 0 0 0 0 0 0 0 
0 0 0 0 0 0 0 0 0 
0 0 0 0 0 0 0 0 0 
0 0 0 0 0 0 0 0 0 
0 0 0 0 0 0 0 0 0 
0 0 0 0 0 0 0 0 0 
0 0 0 0 0 0 0 0 0 
0 0 0 0 0 0 0 0 0 
0 0 0 0 0 0 0 0 0 
0 0 0 0 0 0 0 0 0 
0 0 0 0 0 0 0 0 0 
0 0 0 0 0 0 0 0 0 
0 0 0 0 0 0 0 0 0 
0 0 0 0 0 0 0 0 0 
0 0 0 0 0 0 0 0 0 
0 0 0 0 0 0 0 0 0 
0 0 0 0 0 0 0 0 0 
0 0 0 0 0 0 0 0 0 
0 0 0 0 0 0 0 0 0 
0 0 0 0 0 0 0 0 0 
0 0 0 0 0 0 0 0 0 
0 0 0 0 0 0 0 0 0 
0 0 0 0 0 0 0 0 0 
0 0 0 0 0 0 0 0 0 
0 0 0 0 0 0 0 0 0 
0 0 0 0 0 0 0 0 0 
0 0 0 0 0 0 0 0 0 
0 0 0 0 0 0 0 0 0 
0 0 0 0 0 0 0 0 0 
0 0 0 0 0 0 0 0 0 
0 0 0 0 0 0 0 0 0 
0 0 0 0 0 0 0 0 0 
0 0 0 0 0 0 0 0 0 
0 0 0 0 0 0 0 0 0 
0 0 0 0 0 0 0 0 0 
0 0 0 0 0 0 0 0 0 
0 0 0 0 0 0 0 0 0 
0 0 0 0 0 0 0 0 0 
0 0 0 0 0 0 0 0 0 
0 0 0 0 0 0 0 0 0 
0 0 0 0 0 0 0 0 0 
0 0 0 0 0 0 0 0 0 
0 0 0 0 0 0 0 0 0 
0 0 0 0 0 0 0 0 0 
0 0 0 0 0 0 0 0 0 
0 0 0 0 0 0 0 0 0 
0 0 0 0 0 0 0 0 0 
0 0 0 0 0 0 0 0 0 
0 0 0 0 0 0 0 0 0 
0 0 0 0 0 0 0 0 0 
0 0 0 0 0 0 0 0 0 
0 0 0 0 0 0 0 0 0 
0 0 0 0 0 0 0 0 0 
0 0 0 0 0 0 0 0 0 
0 0 0 0 0 0 0 0 0 
0 0 0 0 0 0 0 0 0 
0 0 0 0 0 0 0 0 0 
0 0 0 0 0 0 0 0 0 
0 0 0 0 0 0 0 0 0 
0 0 0 0 0 0 0 0 0 
0 0 0 0 0 0 0 0 0 
0 0 0 0 0 0 0 0 0 
0 0 0 0 0 0 0 0 0 
0 0 0 0 0 0 0 0 0 
0 0 0 0 0 0 0 0 0 
0 0 0 0 0 0 0 0 0 
0 0 0 0 0 0 0 0 0 
0 0 0 0 0 0 0 0 0 
0 0 0 0 0 0 0 0 0 
0 0 0 0 0 0 0 0 0 
0 0 0 0 0 0 0 0 0 
0 0 0 0 0 0 0 0 0 
0 0 0 0 0 0 0 0 0 
0 0 0 0 0 0 0 0 0 
0 0 0 0 0 0 0 0 0 
0 0 0 0 0 0 0 0 0 
0 0 0 0 0 0 0 0 0 
0 0 0 0 0 0 0 0 0 
0 0 0 0 0 0 0 0 0 
0 0 0 0 0 0 0 0 0 
0 0 0 0 0 0 0 0 0 
0 0 0 0 0 0 0 0 0 
0 0 0 0 0 0 0 0 0 
0 0 0 0 0 0 0 0 0 
0 0 0 0 0 0 0 0 0 
0 0 0 0 0 0 0 0 0 
0 0 0 0 0 0 0 0 0 
0 0 0 0 0 0 0 0 0 
0 0 0 0 0 0 0 0 0 
0 0 0 0 0 0 0 0 0 
0 0 0 0 0 0 0 0 0 
0 0 0 0 0 0 0 0 0 
0 0 0 0 0 0 0 0 0 
0 0 0 0 0 0 0 0 0 
0 0 0 0 0 0 0 0 0 
0 0 0 0 0 0 0 0 0 
0 0 0 0 0 0 0 0 0 
0 0 0 0 0 0 0 0 0 
0 0 0 0 0 0 0 0 0 
0 0 0 0 0 0 0 0 0 
0 0 0 0 0 0 0 0 0 
0 0 0 0 0 0 0 0 0 
0 0 0 0 0 0 0 0 0 
0 0 0 0 0 0 0 0 0 
0 0 0 0 0 0 0 0 0 
0 0 0 0 0 0 0 0 0 
0 0 0 0 0 0 0 0 0 
0 0 0 0 0 0 0 0 0 
0 0 0 0 0 0 0 0 0 
0 0 0 0 0 0 0 0 0 
0 0 0 0 0 0 0 0 0 
0 0 0 0 0 0 0 0 0 
0 0 0 0 0 0 0 0 0 
0 0 0 0 0 0 0 0 0 
0 0 0 0 0 0 0 0 0 
0 0 0 0 0 0 0 0 0 
0 0 0 0 0 0 0 0 0 
0 0 0 0 0 0 0 0 0 
0 0 0 0 0 0 0 0 0 
0 0 0 0 0 0 0 0 0 
0 0 0 0 0 0 0 0 0 
0 0 0 0 0 0 0 0 0 
0 0 0 0 0 0 0 0 0 
0 0 0 0 0 0 0 0 0 
0 0 0 0 0 0 0 0 0 
0 0 0 0 0 0 0 0 0 
0 0 0 0 0 0 0 0 0 
0 0 0 0 0 0 0 0 0 
0 0 0 0 0 0 0 0 0 
0 0 0 0 0 0 0 0 0 
0 0 0 0 0 0 0 0 0 
0 0 0 0 0 0 0 0 0 
0 0 0 0 0 0 0 0 0 
0 0 0 0 0 0 0 0 0 
0 0 0 0 0 0 0 0 0 
0 0 0 0 0 0 0 0 0 
0 0 0 0 0 0 0 0 0 
0 0 0 0 0 0 0 0 0 
0 0 0 0 0 0 0 0 0 
0 0 0 0 0 0 0 0 0 
0 0 0 0 0 0 0 0 0 
0 0 0 0 0 0 0 0 0 
0 0 0 0 0 0 0 0 0 
0 0 0 0 0 0 0 0 0 
0 0 0 0 0 0 0 0 0 
0 0 0 0 0 0 0 0 0 
0 0 0 0 0 0 0 0 0 
0 0 0 0 0 0 0 0 0 
0 0 0 0 0 0 0 0 0 
0 0 0 0 0 0 0 0 0 
0 0 0 0 0 0 0 0 0 
0 0 0 0 0 0 0 0 0 
0 0 0 0 0 0 0 0 0 
0 0 0 0 0 0 0 0 0 
0 0 0 0 0 0 0 0 0 
0 0 0 0 0 0 0 0 0 
0 0 0 0 0 0 0 0 0 
0 0 0 0 0 0 0 0 0 
0 0 0 0 0 0 0 0 0 
0 0 0 0 0 0 0 0 0 
0 0 0 0 0 0 0 0 0 
0 0 0 0 0 0 0 0 0 
0 0 0 0 0 0 0 0 0 
0 0 0 0 0 0 0 0 0 
0 0 0 0 0 0 0 0 0 
0 0 0 0 0 0 0 0 0 
0 0 0 0 0 0 0 0 0 
0 0 0 0 0 0 0 0 0 
0 0 0 0 0 0 0 0 0 
0 0 0 0 0 0 0 0 0 
0 0 0 0 0 0 0 0 0 
0 0 0 0 0 0 0 0 0 
0 0 0 0 0 0 0 0 0 
0 0 0 0 0 0 0 0 0 
0 0 0 0 0 0 0 0 0 
0 0 0 0 0 0 0 0 0 
0 0 0 0 0 0 0 0 0 
0 0 0 0 0 0 0 0 0 
0 0 0 0 0 0 0 0 0 
0 0 0 0 0 0 0 0 0 
0 0 0 0 0 0 0 0 0 
0 0 0 0 0 0 0 0 0 
0 0 0 0 0 0 0 0 0 
0 0 0 0 0 0 0 0 0 
0 0 0 0 0 0 0 0 0 
0 0 0 0 0 0 0 0 0 
0 0 0 0 0 0 0 0 0 
0 0 0 0 0 0 0 0 0 
0 0 0 0 0 0 0 0 0 
0 0 0 0 0 0 0 0 0 
0 0 0 0 0 0 0 0 0 
0 0 0 0 0 0 0 0 0 
0 0 0 0 0 0 0 0 0 
0 0 0 0 0 0 0 0 0 
0 0 0 0 0 0 0 0 0 
0 0 0 0 0 0 0 0 0 
0 0 0 0 0 0 0 0 0 
0 0 0 0 0 0 0 0 0 
0 0 0 0 0 0 0 0 0 
0 0 0 0 0 0 0 0 0 
0 0 0 0 0 0 0 0 0 
0 0 0 0 0 0 0 0 0 
0 0 0 0 0 0 0 0 0 
0 0 0 0 0 0 0 0 0 
0 0 0 0 0 0 0 0 0 
0 0 0 0 0 0 0 0 0 
0 0 0 0 0 0 0 0 0 
0 0 0 0 0 0 0 0 0 
0 0 0 0 0 0 0 0 0 
0 0 0 0 0 0 0 0 0 
0 0 0 0 0 0 0 0 0 
0 0 0 0 0 0 0 0 0 
0 0 0 0 0 0 0 0 0 
0 0 0 0 0 0 0 0 0 
0 0 0 0 0 0 0 0 0 
0 0 0 0 0 0 0 0 0 
0 0 0 0 0 0 0 0 0 
0 0 0 0 0 0 0 0 0 
0 0 0 0 0 0 0 0 0 
0 0 0 0 0 0 0 0 0 
0 0 0 0 0 0 0 0 0 
0 0 0 0 0 0 0 0 0 
0 0 0 0 0 0 0 0 0 
0 0 0 0 0 0 0 0 0 
0 0 0 0 0 0 0 0 0 
0 0 0 0 0 0 0 0 0 
0 0 0 0 0 0 0 0 0 
0 0 0 0 0 0 0 0 0 
0 0 0 0 0 0 0 0 0 
0 0 0 0 0 0 0 0 0 
0 0 0 
v 3 1000 double
-0.077230280506 0.54764570088 0.01495779582 -0.086218800165 0.13749807818 0.10454077674 -0.26974575825 0.42634601397 0.044583998914 
-0.014088008135 0.0057912624735 0.048238975364 -0.019247016089 0.029225636694 0.021075183961 -0.0069277117671 0.017762741491 0.017192262187 
0.017548699836 -0.026708649575 0.069811111049 -0.034992231834 -0.039383369261 0.044224542551 -0.01595386198 0.025917523942 0.030260415146 
-0.011288013379 0.01131549607 0.010523266199 0.0044947702475 0.0088044174729 -0.027546418879 8.0155876725e-05 0.015058151617 -0.027443592196 
-0.012660452424 -0.0067562204173 0.0014363130868 -0.0043439657691 0.01162106928 -0.019631519234 -0.0028853786926 0.018755802917 -0.021764944336 
-0.0058679467566 -0.0067691828242 0.0041143183296 0.026486173886 -0.0024594012233 0.11566039345 0.0092626250306 0.057850271481 -0.050375013565 
-0.028157261394 0.0075231665581 -0.01774422629 -0.0058888133022 0.030542516477 0.014365835448 -0.0045857761241 0.017344205377 0.029854178586 
-0.0013462991734 0.006354914256 0.0059584626442 0.00322774481 0.0091323830742 -0.0013831933545 0.007010093114 -0.00078501903262 -0.0079380996128 
0.002369868247 -0.0050878611611 -0.0078558497624 -0.0056622814444 0.0053970070578 0.0077348870779 -0.013252924552 -0.023610723978 -0.011007903503 
0.01248792692 -0.035076566705 0.037212001399 -0.0027937463021 -0.038089976274 -0.026786162753 -0.20264041289 -0.10075873185 -0.049381514153 
-0.011965741298 0.028577821072 -0.030956638758 0.012326600545 0.0025355267956 -0.021280172487 0.0010999505147 0.0082623369471 0.011048377202 
-0.0019144908946 -0.0053643218541 -0.0056539793016 0.0012907744535 0.0014848952982 -0.012928970357 0.0037368873012 0.0070726085169 -0.0013911773565 
0.010732396414 -0.0049963089975 -0.017679775321 -0.002351446406 -0.030158712165 -0.036875471968 -0.014338965241 -0.0085800202554 -0.018411496825 
0.0028413645856 0.04727728199 -0.023114786151 -0.014156700625 0.002714111988 0.009416415769 0.0015684958363 -0.0021435720721 -0.0067874177017 
0.0087893201789 -0.013297114626 -0.010237493482 0.0033665629655 -0.010206174154 -0.0074189462369 0.0077192175398 0.018059915845 -0.011694482062 
0.00057380460762 -0.022382314756 -0.031241594501 -0.024528680024 -0.02257250146 -0.018443719281 0.0091006962728 0.066756912384 -0.018354485901 
-0.0034741455821 0.045854195804 -0.00047814462433 -0.016159958536 0.017653687783 0.00012870675477 -0.014923271882 0.017994111535 -0.0068491284453 
0.030240123191 0.0025269137452 0.0079513080084 0.010599607725 -0.01252912343 -0.0055535827082 -0.00088535003654 -0.0045709113475 0.0029203607103 
-0.026640474808 -0.0060240329702 0.01300438872 -0.025941800313 -0.011650868452 0.041838703495 -0.0088399532714 0.14933299865 -0.10840176544 
-0.020355497851 0.032627075361 0.023046664972 -0.0814006985 0.01368415301 0.035244589751 -0.014273140268 0.025501232469 0.030994118952 
-0.029863781691 0.0232492382 0.054542684322 -0.0082294551478 -0.00091062419661 0.039028337477 0.0022980576066 0.027650931016 -0.0092567474268 
-0.025281947444 0.018786340311 0.035440814354 -0.029516429494 0.022393150336 0.041485695284 -0.031838979835 0.0069280176335 -0.022958220258 
-0.024803440632 0.011189617012 -0.0068381786661 -0.00499710283 0.0025542099075 -0.0029827638777 0.0082340540417 0.0021812583133 -0.030796075247 
-0.039459251176 0.02001578199 -0.0092036737881 -0.012536953488 0.016222787235 -0.041431636928 -0.027370434923 0.011367991431 -0.026046287704 
-0.020625100493 0.023320451438 0.031940349683 0.0030511767254 0.0005203581799 -0.014467977757 -0.0024962937673 -0.0026502988606 -0.0053340666454 
0.00056724680785 0.0046401314704 -0.013736380491 -0.0029408539799 -0.00034003532317 -0.0046313781317 0.0044347111834 -0.0012658110795 -0.00259977465 
-0.010074184584 -0.014478150801 0.00078540456639 -0.014771989777 0.0021336921366 -0.018552304727 -0.23522980141 -0.013697661799 -0.050304856501 
-0.25526258797 -0.18724964919 -0.084522953967 -0.27971344173 0.13056878177 -0.028800128943 0.015742807546 0.044737091637 -0.045088986107 
-0.029954334424 0.014703662369 -0.0047676973083 -0.0018881604346 0.011969164311 -0.038045101516 -0.0022566270937 0.025812406267 0.016570497333 
-0.013362696477 0.010345653155 -0.0071641323582 0.0046006073646 -0.0013917027274 -0.0080354918479 0.0033359136324 -0.015375092212 -0.013328684455 
-0.0067710289815 -0.00015728057223 -0.014215712351 -0.018846006487 -0.0038157552342 0.0037910219548 -0.022811958166 -0.014503928818 -0.0014089624342 
-0.0026122195023 -0.016325632051 0.0078633588485 -0.020646095075 -0.01173634495 0.0094450144345 -0.39418692454 -0.046953211525 -0.17480704637 
0.028999659487 0.031971584582 -0.0086345277682 -0.0037996984639 0.030655691227 -0.007339934059 -0.019166933035 0.011641425719 -0.016869805064 
0.00098544369033 0.023413473144 -0.020901471151 -0.029411574219 0.025934706661 0.0068710628894 -0.01336142814 0.020499315413 0.013580268923 
-0.0055158566214 0.019186879009 0.0012589011963 -0.0056592927749 0.021302371661 0.0090973209281 0.0068645164593 -0.0023677800208 -0.0042886717225 
0.00084837402666 -0.0051718934689 -0.010038936524 -0.00087083708515 -0.015121638533 -0.0073647870427 -0.0055461842069 -0.011696698464 -0.0099132945384 
0.013316540664 -0.023076591724 -0.0061664065974 -0.016905320598 -0.024083862741 -0.0059423313592 0.011351451959 0.0024982816618 -0.031236058438 
-0.011446331997 0.04421512428 0.0021040714143 -0.0016073946996 0.012549393206 0.0010248769487 0.0091510783238 0.0099526654405 -0.0046485171218 
0.004292730369 -0.013854089227 -0.0011467809291 0.0015717414458 -0.010179937301 -0.0014389865309 -0.0002031377231 -0.049470688998 0.033332628438 
-0.020969642347 -0.015332689415 0.046844386003 -0.018538660359 -0.044108004694 0.025291082669 0.26036496266 0.40529616835 -0.4171909382 
-0.035935086051 0.015910225622 0.022551513928 0.0045278662657 0.0086443739915 0.031227990345 0.020325423923 0.040468747476 0.07335653944 
0.020696700098 0.0082644891039 -0.001924215998 -0.050570413225 0.021565264316 0.030211410282 -0.0063304617372 0.029123869183 0.032090212802 
0.002951076528 -0.00060334499393 -0.013491372049 -0.0067950025014 0.041370764408 -0.037436419347 0.033170847904 -0.028773414471 -0.026937021772 
0.0039785260158 -0.00072027160496 -0.01877029177 -0.064452485178 -0.064207780794 -0.029746109801 0.046479618775 -0.01025072836 -0.051387070938 
-0.028252587935 0.0033017739659 0.022354570233 0.00066572239026 -0.0040578141861 -0.0069054687723 -0.018212950191 0.03716921387 0.012243803424 
-0.0070464428304 0.019938956893 0.0039662689669 0.00024782373349 0.017002376462 0.018012805399 0.0047873302148 -0.0014493191974 -0.0064523649503 
-0.0058692153434 -0.013106151832 -0.017721053242 0.0030540517174 -0.04613744697 -0.0080729643613 -0.015361235453 0.011183152783 -0.014813582662 
-0.00072281071343 -0.005020005815 -0.026623203239 -0.0094439622432 0.041061358323 0.0054225322825 -0.014609488503 0.026484155192 0.0016459173731 
-0.014239932828 0.0087784172331 -0.0021863354919 -0.0078096422533 -0.0040905875448 0.00917983556 0.0082276364534 -0.00091929595578 0.0051067946301 
0.0014361888403 -0.010800603411 -0.024866003247 0.078933586113 -0.00098331594122 0.026458852692 0.006492913232 0.02584035667 -0.063201776082 
-0.0014453827743 -0.020148614044 0.018314452808 0.0099953746507 -0.0083939906504 0.0027011021372 -0.0096945241857 -0.0086957633433 -0.036205405443 