# vtk DataFile Version 4.1
Generated by LIGGGHTS
ASCII
DATASET POLYDATA
POINTS 1000 float
0.0050322 -0.0361398 0.00227025 0.00326073 -0.0338966 0.00216206 0.00339205 -0.0229863 0.00159518 
0.00600689 -0.0160268 0.00149906 0.00221834 -0.0132566 0.00148851 0.00506774 -0.0133337 0.00168661 
0.00787017 -0.0138741 0.00152454 0.0166154 -0.0125719 0.00188339 0.0220537 -0.012833 0.00149433 
0.00251774 -0.0104334 0.00163561 0.00538435 -0.010475 0.0014922 0.00825302 -0.0104015 0.00151657 
0.0111034 -0.0103216 0.00148061 0.0137064 -0.0114809 0.00151989 0.0193632 -0.0118615 0.00157361 
0.0230046 -0.0103053 0.00244002 -0.0389532 -0.00913118 0.00228431 -0.0366264 -0.00755303 0.00176381 
-0.00631645 -0.00763206 0.00147437 -0.00446125 -0.00960268 0.00233957 -0.000290045 -0.00990272 0.00150108 
0.00393718 -0.00798419 0.00158837 0.00678096 -0.00797749 0.00164599 0.00962468 -0.00787256 0.00151097 
0.0124399 -0.00787162 0.00206164 0.0150417 -0.00896944 0.00151068 0.020387 -0.00923819 0.00196745 
0.0254825 -0.00898629 0.00189844 0.0282866 -0.00938519 0.00157058 0.0323189 -0.00779239 0.00162162 
-0.0391963 -0.00631469 0.00188767 -0.0035246 -0.00702155 0.00150569 -0.000716184 -0.00713689 0.0020538 
0.00809859 -0.00544776 0.00152388 0.0130197 -0.005139 0.00147857 0.0156568 -0.00619326 0.00150539 
0.0182203 -0.00744222 0.00148602 0.0238055 -0.00667834 0.0018584 0.0271986 -0.00673185 0.00157724 
0.031341 -0.00511535 0.00175123 -0.000856063 -0.0027061 0.00147292 0.0063573 -0.00316782 0.00149203 
0.011214 -0.00295515 0.00180048 0.0176006 -0.00411219 0.00149214 0.0202879 -0.00370313 0.0022986 
0.0230379 -0.00394978 0.00160328 0.0258188 -0.00427898 0.00210833 0.0286263 -0.00425941 0.00160617 
-0.00489953 -0.00046506 0.0020779 -0.00207687 -0.000301285 0.00240196 0.00408843 -0.00142292 0.00151564 
0.00672111 -0.000331529 0.00149348 0.0140619 -0.000119465 0.00198176 0.0176078 -0.00126401 0.00146819 
0.0226971 -0.00112218 0.00163928 0.0348395 -0.00189533 0.0015361 0.00225752 -0.0364792 0.00284136 
-0.0280446 -0.0240546 0.00550802 0.00347685 -0.0155058 0.00268394 0.00569094 -0.0173123 0.00403362 
0.00226574 -0.013521 0.00433307 0.00641771 -0.014551 0.00389895 0.0091825 -0.0128491 0.00383434 
0.0146393 -0.0133016 0.00380851 0.000835505 -0.0111015 0.00383044 0.00406874 -0.0113631 0.00384398 
0.00710634 -0.011024 0.00453416 0.0119627 -0.0123475 0.00359263 0.0101674 -0.0101872 0.00415954 
0.0182713 -0.012198 0.00418466 0.0213636 -0.0119329 0.0041091 -0.00539689 -0.00760655 0.00416347 
-0.00260152 -0.00816377 0.00393912 0.00265742 -0.00888435 0.00402229 0.013622 -0.00905333 0.00436708 
0.0161126 -0.00775909 0.00386276 0.0174834 -0.00995468 0.00260936 0.0189414 -0.00804266 0.00416728 
0.0215415 -0.0091208 0.00457752 0.0243818 -0.00889442 0.00452869 0.0272039 -0.0089525 0.00417683 
0.03081 -0.00990156 0.00281461 -0.0379756 -0.00731917 0.00426098 -0.036914 -0.00499239 0.00299179 
-0.00739227 -0.00574184 0.00329946 -0.000293119 -0.00679123 0.00487266 -0.00235511 -0.00534646 0.00351806 
0.00287548 -0.00608794 0.00343227 0.00598837 -0.00688181 0.00415595 0.0136899 -0.00622626 0.00403464 
0.0192919 -0.00521433 0.00450275 0.0212061 -0.00674125 0.00302911 0.0244351 -0.00603811 0.00457372 
0.0272896 -0.00610788 0.004351 0.0297536 -0.00725732 0.00275326 0.032107 -0.00646366 0.00414783 
-0.00585649 -0.00345607 0.00406377 -0.00341234 -0.0028114 0.00273232 -0.00103844 -0.00256304 0.00429891 
0.000400097 -0.0047049 0.00306153 0.00178856 -0.00274799 0.00460448 0.00424665 -0.00356803 0.00338854 
0.00869221 -0.0031522 0.00311436 0.0132826 -0.00339879 0.00370733 0.0159152 -0.00446688 0.00377218 
0.0181242 -0.00266864 0.00388799 0.0212991 -0.00323236 0.00492657 0.0240639 -0.00324326 0.00416127 
0.0268318 -0.00257775 0.00415493 0.0298069 -0.0047629 0.004145 -0.00745567 -0.00163664 0.00256531 
0.000693798 -0.000764897 0.00287683 0.00636115 -0.00172475 0.00395106 0.013306 -0.000177426 0.00474121 
0.0166422 -0.00020404 0.00390593 0.0201015 -0.000913705 0.00281455 0.0287469 -0.000577452 0.0035222 
0.0306314 -0.0024899 0.00259952 0.0325187 -0.00108172 0.00419936 0.00415567 -0.0153571 0.00544416 
0.00537166 -0.0128172 0.00591066 0.0081896 -0.0142237 0.00611604 0.0109629 -0.0135839 0.00595904 
-0.00284964 -0.0104222 0.00731536 -0.000269767 -0.012269 0.00619336 0.00243095 -0.0113483 0.00617607 
0.0106421 -0.0109111 0.00686879 0.0133739 -0.0120573 0.00605121 0.0175287 -0.0123077 0.0069335 
0.0197818 -0.0107451 0.00615471 0.0244758 -0.0103523 0.00698415 -0.00512814 -0.00768804 0.00700648 
-0.000740234 -0.00952014 0.00561379 -0.00227738 -0.00763658 0.00709237 0.00173049 -0.00864671 0.00673051 
0.00508292 -0.00924823 0.00548216 0.00902357 -0.00780421 0.00526366 0.0116334 -0.00829869 0.00627646 
0.0171698 -0.00988981 0.00543795 0.0151081 -0.00839394 0.00670937 0.0218716 -0.00926514 0.0074078 
0.0245289 -0.00749942 0.00702098 -0.00434369 -0.00535699 0.00555777 0.00168239 -0.00580184 0.00669797 
0.00429968 -0.0051842 0.00572924 0.00658255 -0.00643913 0.00689435 0.00934799 -0.00602106 0.00747824 
0.0115662 -0.00546995 0.00578491 0.0217937 -0.00594098 0.00568743 0.0273089 -0.00673581 0.007138 
-0.0267758 -0.00332057 0.0057554 -0.00833282 -0.00441918 0.00563682 -0.00597163 -0.00345126 0.00692096 
-0.00359403 -0.00261245 0.00557364 -0.00165191 -0.00462088 0.00617519 0.00327278 -0.00287315 0.00704707 
0.00692406 -0.00431588 0.0050282 0.00952635 -0.00345471 0.00583557 0.0125878 -0.00287328 0.0064007 
0.0146799 -0.00481152 0.00631133 0.0192468 -0.00362303 0.00687873 0.02332 -0.00384228 0.00685149 
0.0260435 -0.00435717 0.00623034 0.0288338 -0.00432229 0.00679995 -0.0100988 -0.000574862 0.00685631 
-0.00760478 -0.00167039 0.00542551 0.000114484 -0.00248659 0.00690462 0.00663059 -0.000254516 0.00637073 
0.0152124 -0.00216473 0.00541242 0.0177565 -0.00125341 0.006334 0.0226428 -0.00113024 0.0063122 
0.0272322 -0.00201126 0.00733703 0.0301633 -0.00222284 0.00539508 0.00366218 -0.012964 0.00818655 
0.00621831 -0.0140341 0.00887111 0.0089701 -0.0146109 0.00938633 0.0112176 -0.0129591 0.00874943 
0.00308564 -0.0102128 0.00870565 0.00555799 -0.0113463 0.00957579 0.00749871 -0.0118614 0.00755179 
0.0118958 -0.0102243 0.00933577 0.0167657 -0.0107214 0.00917918 -0.00437822 -0.00913508 0.00935653 
0.000172682 -0.0090676 0.00909566 0.00618583 -0.00881914 0.00842323 0.00966618 -0.00870309 0.0083374 
0.0131172 -0.00774132 0.00864307 0.0158651 -0.0078144 0.00940598 0.0193879 -0.00965309 0.00876347 
-0.00952705 -0.00504378 0.00923744 -0.00719182 -0.00588254 0.00781161 -0.00305388 -0.0066162 0.00963989 
-0.000538266 -0.00586296 0.0084933 0.00396218 -0.00718162 0.00773645 0.00654075 -0.00588762 0.00966526 
0.0199932 -0.00712805 0.00756123 0.0225008 -0.00607268 0.00843985 -0.00854617 -0.00271538 0.00790952 
-0.00697156 -0.00397788 0.00992527 -0.00371299 -0.00405273 0.00855427 -0.00049622 -0.00284299 0.00965633 
0.0036544 -0.00353536 0.00980429 0.00749529 -0.00390298 0.00780722 0.010224 -0.00354699 0.00860392 
0.0126981 -0.00494189 0.00835782 0.0125743 -0.00258224 0.00994695 0.0166379 -0.00324417 0.0080427 
0.0188106 -0.00262979 0.00976748 0.0256649 -0.00372359 0.00899928 -0.0103466 -0.00126129 0.00960438 
-0.00507991 -0.0015298 0.00883553 -0.00239249 -0.0015946 0.007937 0.00111317 -0.000631294 0.00883899 
0.00556917 -0.00190932 0.00843895 0.0144001 -0.00145715 0.00806077 0.0169487 -0.000582321 0.00899632 
0.0202072 -0.00109736 0.00780619 0.0246851 -0.00114301 0.00830909 0.0299264 -0.00211274 0.00825016 
0.00428822 -0.0135327 0.0109132 0.00828828 -0.0105926 0.00998804 0.0198231 -0.011669 0.0110115 
0.000890034 -0.00942096 0.0118393 0.00252106 -0.00781091 0.0101245 0.00785533 -0.0079818 0.0110757 
0.0109316 -0.00793451 0.0107684 0.0144263 -0.00995129 0.0106513 0.0132725 -0.00801606 0.0124048 
0.0178904 -0.0089261 0.0110739 0.0218425 -0.00981886 0.0102072 -0.000610145 -0.00712883 0.0110418 
0.002258 -0.00580113 0.0121298 0.00929837 -0.00562465 0.0103153 0.0141072 -0.00594024 0.010634 
0.0166776 -0.00645563 0.011787 0.0190925 -0.00648178 0.0102079 0.0232011 -0.00739678 0.0108691 
-0.00302351 -0.004307 0.0113134 -0.000259001 -0.00445785 0.0119957 0.00499023 -0.00499234 0.0118628 
0.00740116 -0.00360493 0.0111296 0.0102056 -0.00317147 0.0114377 0.0174634 -0.0037238 0.0120263 
0.0208393 -0.00477701 0.0116988 0.0234799 -0.00455766 0.0106382 0.00164656 -0.00239587 0.0114794 
0.00504955 -0.00215409 0.0118847 0.0075043 -0.000766166 0.0115273 0.0154011 -0.00246158 0.0105106 
0.0216217 -0.00243595 0.010217 0.0121084 -0.00164831 0.0129068 -0.0409648 -0.0256246 0.0344346 
-0.00946583 9.51793e-05 0.00151704 -0.00753361 0.00201111 0.00239621 -0.00354033 0.00197345 0.00148785 
0.0164763 0.00135246 0.00151974 0.0216259 0.00143746 0.00228256 0.0329068 0.000196879 0.00166358 
0.0356763 0.000805466 0.00196455 -0.0101126 0.0028697 0.00149682 -0.00561408 0.00393202 0.00148224 
0.0161109 0.00409325 0.00223123 0.0250089 0.00316325 0.00151554 0.0274257 0.0043373 0.0024833 
0.0337092 0.00285325 0.00233327 -0.0119474 0.00723903 0.00199015 -0.00633911 0.00671406 0.00153091 
0.000382025 0.00601583 0.00150135 0.0113941 0.00693477 0.00148741 0.0183231 0.00574135 0.00149809 
0.0281826 0.00708294 0.00224464 0.0309384 0.00633668 0.00230968 0.0345848 0.00551002 0.00176457 
-0.00370793 0.00989312 0.00220055 0.0011913 0.00875304 0.00150105 0.00894201 0.00850462 0.00149019 
0.0114553 0.0097835 0.0015712 0.0332074 0.00801371 0.00190284 -0.0120285 0.0100971 0.00203798 
-0.00985647 0.0118828 0.00149173 -0.007127 0.0113538 0.00216559 -0.00102596 0.0105592 0.00145812 
0.00353728 0.01023 0.00217974 0.00623956 0.0109894 0.00153405 0.00908819 0.0113773 0.00159182 
0.0139782 0.0110691 0.0018935 0.0192308 0.0119099 0.0019637 0.0240797 0.0115053 0.00198831 
0.0264802 0.0100291 0.00157495 0.0293145 0.0103846 0.00146184 -0.0115267 0.0140772 0.00225147 
-0.00881161 0.0145442 0.00149512 0.00419882 0.0129656 0.00184007 0.00953446 0.0141997 0.00183629 
0.0168179 0.0133523 0.00147703 0.0212322 0.013955 0.00202284 0.0240601 0.0143356 0.00171363 
[...]
POINT_DATA 1000
FIELD FieldData 7
id 1 1000 int
24 10 18 49 266 25 280 297 3 
263 22 12 290 285 53 27 29 23 
302 36 282 268 251 277 295 37 48 
21 9 141 83 17 2 16 50 30 
46 15 39 247 43 104 38 33 7 
19 274 309 191 107 235 6 378 138 
164 248 41 20 254 1 252 52 262 
504 298 256 535 301 520 296 272 270 
58 306 258 13 56 45 294 264 260 
32 51 40 259 253 28 287 278 31 
273 4 281 305 34 65 304 205 54 
47 303 308 44 8 5 42 289 261 
527 292 291 11 35 434 67 14 554 
279 689 26 267 551 558 761 509 531 
555 544 543 501 533 549 524 525 508 
548 552 526 257 518 521 503 293 534 
283 528 532 286 284 767 216 507 506 
276 255 510 265 275 300 269 556 307 
530 788 804 529 536 158 299 288 547 
807 511 515 810 773 766 769 787 789 
774 782 768 765 776 755 516 797 546 
784 502 757 522 540 542 538 512 519 
794 523 505 764 545 539 517 557 513 
790 752 792 806 541 648 537 271 550 
514 809 801 775 805 751 781 796 808 
777 802 795 786 803 778 798 553 758 
791 800 763 759 753 762 783 793 780 
772 785 779 756 799 754 770 760 57 
193 339 102 55 186 136 160 357 199 
161 131 242 218 363 89 429 112 331 
384 425 234 237 69 63 206 433 455 
227 229 118 243 123 116 211 238 157 
130 149 223 175 204 84 62 155 203 
165 80 169 178 194 183 472 154 249 
179 222 90 127 310 120 87 332 208 
117 226 197 86 182 110 64 430 105 
407 404 75 231 399 174 159 740 184 
77 60 103 195 484 367 98 236 360 
151 177 143 239 156 487 431 392 496 
121 190 139 749 401 114 91 233 416 
397 323 113 389 482 72 66 685 393 
214 499 209 68 344 413 202 330 328 
380 724 96 232 359 423 94 212 314 
445 119 460 419 313 101 85 122 73 
213 189 333 147 99 92 317 128 210 
246 145 220 241 180 352 448 142 185 
78 88 198 150 61 100 408 166 428 
415 490 93 311 163 240 462 492 570 
346 427 471 387 146 59 221 115 201 
385 465 483 394 391 82 126 245 196 
109 79 124 106 412 495 379 347 435 
140 436 167 97 364 376 366 315 464 
491 188 341 451 437 422 463 418 402 
390 447 349 170 898 162 225 176 439 
224 153 334 76 388 168 81 148 459 
125 603 329 640 565 219 370 320 95 
134 111 192 207 200 679 709 457 369 
132 477 383 596 688 698 449 486 468 
382 129 655 675 642 632 678 732 365 
673 900 666 629 452 450 454 338 730 
680 563 335 398 727 912 438 173 172 
135 355 362 250 358 625 475 626 707 
498 152 70 466 470 396 456 561 343 
476 340 350 473 215 405 181 342 622 
598 692 494 74 480 137 244 368 373 
461 646 411 377 714 337 420 348 230 
371 386 674 409 406 414 481 474 594 
395 336 444 741 467 319 575 400 722 
620 322 728 590 560 171 581 702 479 
318 485 750 618 432 356 668 500 615 
592 616 71 564 442 228 426 381 372 
638 623 458 922 326 353 735 325 571 
567 613 577 663 945 652 441 573 572 
876 974 601 695 469 927 981 992 967 
862 703 417 440 747 645 915 701 566 
847 890 936 744 579 670 569 593 738 
930 589 979 316 656 903 611 591 726 
664 607 453 493 619 718 653 410 658 
609 446 870 606 354 217 108 403 489 
682 654 745 650 715 562 361 421 497 
488 617 599 610 624 700 424 710 723 
568 634 748 321 614 327 312 578 828 
660 733 739 585 588 743 996 933 375 
672 691 697 816 586 600 587 621 595 
665 597 576 643 651 644 559 818 868 
712 716 602 628 639 662 720 988 604 
734 608 999 708 144 925 746 989 631 
686 681 848 690 635 811 879 696 641 
729 693 699 860 853 906 919 612 574 
932 909 704 877 929 771 959 649 717 
961 886 921 984 971 835 647 684 633 
711 659 731 817 869 840 837 942 882 
814 627 843 705 582 935 871 964 895 
856 855 669 637 924 812 917 953 657 
859 683 584 374 671 324 345 736 630 
914 580 842 954 823 867 955 719 742 
908 815 824 897 902 583 976 957 977 
713 938 949 478 881 963 836 721 948 
968 826 905 694 676 636 667 834 737 
970 857 918 838 725 845 993 852 889 
893 880 944 822 947 987 865 965 875 
687 885 854 829 819 661 940 952 980 
986 827 830 858 978 874 878 962 821 
913 133 861 946 850 939 928 958 351 
907 896 841 997 825 916 833 941 901 
891 931 911 937 985 990 926 975 849 
998 910 872 813 863 943 888 873 883 
677 866 951 969 983 960 920 706 605 
950 851 846 934 894 1000 884 982 995 
956 966 844 904 973 923 994 831 899 
972 887 820 832 187 991 892 839 443 
864 
type 1 1000 int
1 1 1 1 1 1 1 1 1 
1 1 1 1 1 1 1 1 1 
1 1 1 1 1 1 1 1 1 
1 1 1 1 1 1 1 1 1 
1 1 1 1 1 1 1 1 1 
1 1 1 1 1 1 1 1 1 
1 1 1 1 1 1 1 1 1 
1 1 1 1 1 1 1 1 1 
1 1 1 1 1 1 1 1 1 
1 1 1 1 1 1 1 1 1 
1 1 1 1 1 1 1 1 1 
1 1 1 1 1 1 1 1 1 
1 1 1 1 1 1 1 1 1 
1 1 1 1 1 1 1 1 1 
1 1 1 1 1 1 1 1 1 
1 1 1 1 1 1 1 1 1 
1 1 1 1 1 1 1 1 1 
1 1 1 1 1 1 1 1 1 
1 1 1 1 1 1 1 1 1 
1 1 1 1 1 1 1 1 1 
1 1 1 1 1 1 1 1 1 
1 1 1 1 1 1 1 1 1 
1 1 1 1 1 1 1 1 1 
1 1 1 1 1 1 1 1 1 
1 1 1 1 1 1 1 1 1 
1 1 1 1 1 1 1 1 1 
1 1 1 1 1 1 1 1 1 
1 1 1 1 1 1 1 1 1 
1 1 1 1 1 1 1 1 1 
1 1 1 1 1 1 1 1 1 
1 1 1 1 1 1 1 1 1 
1 1 1 1 1 1 1 1 1 
1 1 1 1 1 1 1 1 1 
1 1 1 1 1 1 1 1 1 
1 1 1 1 1 1 1 1 1 
1 1 1 1 1 1 1 1 1 
1 1 1 1 1 1 1 1 1 
1 1 1 1 1 1 1 1 1 
1 1 1 1 1 1 1 1 1 
1 1 1 1 1 1 1 1 1 
1 1 1 1 1 1 1 1 1 
1 1 1 1 1 1 1 1 1 
1 1 1 1 1 1 1 1 1 
1 1 1 1 1 1 1 1 1 
1 1 1 1 1 1 1 1 1 
1 1 1 1 1 1 1 1 1 
1 1 1 1 1 1 1 1 1 
1 1 1 1 1 1 1 1 1 
1 1 1 1 1 1 1 1 1 
1 1 1 1 1 1 1 1 1 
1 1 1 1 1 1 1 1 1 
1 1 1 1 1 1 1 1 1 
1 1 1 1 1 1 1 1 1 
1 1 1 1 1 1 1 1 1 
1 1 1 1 1 1 1 1 1 
1 1 1 1 1 1 1 1 1 
1 1 1 1 1 1 1 1 1 
1 1 1 1 1 1 1 1 1 
1 1 1 1 1 1 1 1 1 
1 1 1 1 1 1 1 1 1 
1 1 1 1 1 1 1 1 1 
1 1 1 1 1 1 1 1 1 
1 1 1 1 1 1 1 1 1 
1 1 1 1 1 1 1 1 1 
1 1 1 1 1 1 1 1 1 
1 1 1 1 1 1 1 1 1 
1 1 1 1 1 1 1 1 1 
1 1 1 1 1 1 1 1 1 
1 1 1 1 1 1 1 1 1 
1 1 1 1 1 1 1 1 1 
1 1 1 1 1 1 1 1 1 
1 1 1 1 1 1 1 1 1 
1 1 1 1 1 1 1 1 1 
1 1 1 1 1 1 1 1 1 
1 1 1 1 1 1 1 1 1 
1 1 1 1 1 1 1 1 1 
1 1 1 1 1 1 1 1 1 
1 1 1 1 1 1 1 1 1 
1 1 1 1 1 1 1 1 1 
1 1 1 1 1 1 1 1 1 
1 1 1 1 1 1 1 1 1 
1 1 1 1 1 1 1 1 1 
1 1 1 1 1 1 1 1 1 
1 1 1 1 1 1 1 1 1 
1 1 1 1 1 1 1 1 1 
1 1 1 1 1 1 1 1 1 
1 1 1 1 1 1 1 1 1 
1 1 1 1 1 1 1 1 1 
1 1 1 1 1 1 1 1 1 
1 1 1 1 1 1 1 1 1 
1 1 1 1 1 1 1 1 1 
1 1 1 1 1 1 1 1 1 
1 1 1 1 1 1 1 1 1 
1 1 1 1 1 1 1 1 1 
1 1 1 1 1 1 1 1 1 
1 1 1 1 1 1 1 1 1 
1 1 1 1 1 1 1 1 1 
1 1 1 1 1 1 1 1 1 
1 1 1 1 1 1 1 1 1 
1 1 1 1 1 1 1 1 1 
1 1 1 1 1 1 1 1 1 
1 1 1 1 1 1 1 1 1 
1 1 1 1 1 1 1 1 1 
1 1 1 1 1 1 1 1 1 
1 1 1 1 1 1 1 1 1 
1 1 1 1 1 1 1 1 1 
1 1 1 1 1 1 1 1 1 
1 1 1 1 1 1 1 1 1 
1 1 1 1 1 1 1 1 1 
1 1 1 1 1 1 1 1 1 
1 1 1 1 1 1 1 1 1 
1 
i 3 1000 int
0 0 0 0 0 0 0 0 0 
0 0 0 0 0 0 0 0 0 
0 0 0 0 0 0 0 0 0 
0 0 0 0 0 0 0 0 0 
0 0 0 0 0 0 0 0 0 
0 0 0 0 0 0 0 0 0 
0 0 0 0 0 0 0 0 0 
0 0 0 0 0 0 0 0 0 
0 0 0 0 0 0 0 0 0 
0 0 0 0 0 0 0 0 0 
0 0 0 0 0 0 0 0 0 
0 0 0 0 0 0 0 0 0 
0 0 0 0 0 0 0 0 0 
0 0 0 0 0 0 0 0 0 
0 0 0 0 0 0 0 0 0 
0 0 0 0 0 0 0 0 0 
0 0 0 0 0 0 0 0 0 
0 0 0 0 0 0 0 0 0 
0 0 0 0 0 0 0 0 0 
0 0 0 0 0 0 0 0 0 
0 0 0 0 0 0 0 0 0 
0 0 0 0 0 0 0 0 0 
0 0 0 0 0 0 0 0 0 
0 0 0 0 0 0 0 0 0 
0 0 0 0 0 0 0 0 0 
0 0 0 0 0 0 0 0 0 
0 0 0 0 0 0 0 0 0 
0 0 0 0 0 0 0 0 0 
0 0 0 0 0 0 0 0 0 
0 0 0 0 0 0 0 0 0 
0 0 0 0 0 0 0 0 0 
0 0 0 0 0 0 0 0 0 
0 0 0 0 0 0 0 0 0 
0 0 0 0 0 0 0 0 0 
0 0 0 0 0 0 0 0 0 
0 0 0 0 0 0 0 0 0 
0 0 0 0 0 0 0 0 0 
0 0 0 0 0 0 0 0 0 
0 0 0 0 0 0 0 0 0 
0 0 0 0 0 0 0 0 0 
0 0 0 0 0 0 0 0 0 
0 0 0 0 0 0 0 0 0 
0 0 0 0 0 0 0 0 0 
0 0 0 0 0 0 0 0 0 
0 0 0 0 0 0 0 0 0 
0 0 0 0 0 0 0 0 0 
0 0 0 0 0 0 0 0 0 
0 0 0 0 0 0 0 0 0 
0 0 0 0 0 0 0 0 0 
0 0 0 0 0 0 0 0 0 
0 0 0 0 0 0 0 0 0 
0 0 0 0 0 0 0 0 0 
0 0 0 0 0 0 0 0 0 
0 0 0 0 0 0 0 0 0 
0 0 0 0 0 0 0 0 0 
0 0 0 0 0 0 0 0 0 
0 0 0 0 0 0 0 0 0 
0 0 0 0 0 0 0 0 0 
0 0 0 0 0 0 0 0 0 
0 0 0 0 0 0 0 0 0 
0 0 0 0 0 0 0 0 0 
0 0 0 0 0 0 0 0 0 
0 0 0 0 0 0 0 0 0 
0 0 0 0 0 0 0 0 0 
0 0 0 0 0 0 0 0 0 
0 0 0 0 0 0 0 0 0 
0 0 0 0 0 0 0 0 0 
0 0 0 0 0 0 0 0 0 
0 0 0 0 0 0 0 0 0 
0 0 0 0 0 0 0 0 0 
0 0 0 0 0 0 0 0 0 
0 0 0 0 0 0 0 0 0 
0 0 0 0 0 0 0 0 0 
0 0 0 0 0 0 0 0 0 
0 0 0 0 0 0 0 0 0 
0 0 0 0 0 0 0 0 0 
0 0 0 0 0 0 0 0 0 
0 0 0 0 0 0 0 0 0 
0 0 0 0 0 0 0 0 0 
0 0 0 0 0 0 0 0 0 
0 0 0 0 0 0 0 0 0 
0 0 0 0 0 0 0 0 0 
0 0 0 0 0 0 0 0 0 
0 0 0 0 0 0 0 0 0 
0 0 0 0 0 0 0 0 0 
0 0 0 0 0 0 0 0 0 
0 0 0 0 0 0 0 0 0 
0 0 0 0 0 0 0 0 0 
0 0 0 0 0 0 0 0 0 
0 0 0 0 0 0 0 0 0 
0 0 0 0 0 0 0 0 0 
0 0 0 0 0 0 0 0 0 
0 0 0 0 0 0 0 0 0 
0 0 0 0 0 0 0 0 0 
0 0 0 0 0 0 0 0 0 
0 0 0 0 0 0 0 0 0 
0 0 0 0 0 0 0 0 0 
0 0 0 0 0 0 0 0 0 
0 0 0 0 0 0 0 0 0 
0 0 0 0 0 0 0 0 0 
0 0 0 0 0 0 0 0 0 
0 0 0 0 0 0 0 0 0 
0 0 0 0 0 0 0 0 0 
0 0 0 0 0 0 0 0 0 
0 0 0 0 0 0 0 0 0 
0 0 0 0 0 0 0 0 0 
0 0 0 0 0 0 0 0 0 
0 0 0 0 0 0 0 0 0 
0 0 0 0 0 0 0 0 0 
0 0 0 0 0 0 0 0 0 
0 0 0 0 0 0 0 0 0 
0 0 0 0 0 0 0 0 0 
0 0 0 0 0 0 0 0 0 
0 0 0 0 0 0 0 0 0 
0 0 0 0 0 0 0 0 0 
0 0 0 0 0 0 0 0 0 
0 0 0 0 0 0 0 0 0 
0 0 0 0 0 0 0 0 0 
0 0 0 0 0 0 0 0 0 
0 0 0 0 0 0 0 0 0 
0 0 0 0 0 0 0 0 0 
0 0 0 0 0 0 0 0 0 
0 0 0 0 0 0 0 0 0 
0 0 0 0 0 0 0 0 0 
0 0 0 0 0 0 0 0 0 
0 0 0 0 0 0 0 0 0 
0 0 0 0 0 0 0 0 0 
0 0 0 0 0 0 0 0 0 
0 0 0 0 0 0 0 0 0 
0 0 0 0 0 0 0 0 0 
0 0 0 0 0 0 0 0 0 
0 0 0 0 0 0 0 0 0 
0 0 0 0 0 0 0 0 0 
0 0 0 0 0 0 0 0 0 
0 0 0 0 0 0 0 0 0 
0 0 0 0 0 0 0 0 0 
0 0 0 0 0 0 0 0 0 
0 0 0 0 0 0 0 0 0 
0 0 0 0 0 0 0 0 0 
0 0 0 0 0 0 0 0 0 
0 0 0 0 0 0 0 0 0 
0 0 0 0 0 0 0 0 0 
0 0 0 0 0 0 0 0 0 
0 0 0 0 0 0 0 0 0 
0 0 0 0 0 0 0 0 0 
0 0 0 0 0 0 0 0 0 
0 0 0 0 0 0 0 0 0 
0 0 0 0 0 0 0 0 0 
0 0 0 0 0 0 0 0 0 
0 0 0 0 0 0 0 0 0 
0 0 0 0 0 0 0 0 0 
0 0 0 0 0 0 0 0 0 
0 0 0 0 0 0 0 0 0 
0 0 0 0 0 0 0 0 0 
0 0 0 0 0 0 0 0 0 
0 0 0 0 0 0 0 0 0 
0 0 0 0 0 0 0 0 0 
0 0 0 0 0 0 0 0 0 
0 0 0 0 0 0 0 0 0 
0 0 0 0 0 0 0 0 0 
0 0 0 0 0 0 0 0 0 
0 0 0 0 0 0 0 0 0 
0 0 0 0 0 0 0 0 0 
0 0 0 0 0 0 0 0 0 
0 0 0 0 0 0 0 0 0 
0 0 0 0 0 0 0 0 0 
0 0 0 0 0 0 0 0 0 
0 0 0 0 0 0 0 0 0 
0 0 0 0 0 0 0 0 0 
0 0 0 0 0 0 0 0 0 
0 0 0 0 0 0 0 0 0 
0 0 0 0 0 0 0 0 0 
0 0 0 0 0 0 0 0 0 
0 0 0 0 0 0 0 0 0 
0 0 0 0 0 0 0 0 0 
0 0 0 0 0 0 0 0 0 
0 0 0 0 0 0 0 0 0 
0 0 0 0 0 0 0 0 0 
0 0 0 0 0 0 0 0 0 
0 0 0 0 0 0 0 0 0 
0 0 0 0 0 0 0 0 0 
0 0 0 0 0 0 0 0 0 
0 0 0 0 0 0 0 0 0 
0 0 0 0 0 0 0 0 0 
0 0 0 0 0 0 0 0 0 
0 0 0 0 0 0 0 0 0 
0 0 0 0 0 0 0 0 0 
0 0 0 0 0 0 0 0 0 
0 0 0 0 0 0 0 0 0 
0 0 0 0 0 0 0 0 0 
0 0 0 0 0 0 0 0 0 
0 0 0 0 0 0 0 0 0 
0 0 0 0 0 0 0 0 0 
0 0 0 0 0 0 0 0 0 
0 0 0 0 0 0 0 0 0 
0 0 0 0 0 0 0 0 0 
0 0 0 0 0 0 0 0 0 
0 0 0 0 0 0 0 0 0 
0 0 0 0 0 0 0 0 0 
0 0 0 0 0 0 0 0 0 
0 0 0 0 0 0 0 0 0 
0 0 0 0 0 0 0 0 0 
0 0 0 0 0 0 0 0 0 
0 0 0 0 0 0 0 0 0 
0 0 0 0 0 0 0 0 0 
0 0 0 0 0 0 0 0 0 
0 0 0 0 0 0 0 0 0 
0 0 0 0 0 0 0 0 0 
0 0 0 0 0 0 0 0 0 
0 0 0 0 0 0 0 0 0 
0 0 0 0 0 0 0 0 0 
0 0 0 0 0 0 0 0 0 
0 0 0 0 0 0 0 0 0 
0 0 0 0 0 0 0 0 0 
0 0 0 0 0 0 0 0 0 
0 0 0 0 0 0 0 0 0 
0 0 0 0 0 0 0 0 0 
0 0 0 0 0 0 0 0 0 
0 0 0 0 0 0 0 0 0 
0 0 0 0 0 0 0 0 0 
0 0 0 0 0 0 0 0 0 
0 0 0 0 0 0 0 0 0 
0 0 0 0 0 0 0 0 0 
0 0 0 0 0 0 0 0 0 
0 0 0 0 0 0 0 0 0 
0 0 0 0 0 0 0 0 0 
0 0 0 0 0 0 0 0 0 
0 0 0 0 0 0 0 0 0 
0 0 0 0 0 0 0 0 0 
0 0 0 0 0 0 0 0 0 
0 0 0 0 0 0 0 0 0 
0 0 0 0 0 0 0 0 0 
0 0 0 0 0 0 0 0 0 
0 0 0 0 0 0 0 0 0 
0 0 0 0 0 0 0 0 0 
0 0 0 0 0 0 0 0 0 
0 0 0 0 0 0 0 0 0 
0 0 0 0 0 0 0 0 0 
0 0 0 0 0 0 0 0 0 
0 0 0 0 0 0 0 0 0 
0 0 0 0 0 0 0 0 0 
0 0 0 0 0 0 0 0 0 
0 0 0 0 0 0 0 0 0 
0 0 0 0 0 0 0 0 0 
0 0 0 0 0 0 0 0 0 
0 0 0 0 0 0 0 0 0 
0 0 0 0 0 0 0 0 0 
0 0 0 0 0 0 0 0 0 
0 0 0 0 0 0 0 0 0 
0 0 0 0 0 0 0 0 0 
0 0 0 0 0 0 0 0 0 
0 0 0 0 0 0 0 0 0 
0 0 0 0 0 0 0 0 0 
0 0 0 0 0 0 0 0 0 
0 0 0 0 0 0 0 0 0 
0 0 0 0 0 0 0 0 0 
0 0 0 0 0 0 0 0 0 
0 0 0 0 0 0 0 0 0 
0 0 0 0 0 0 0 0 0 
0 0 0 0 0 0 0 0 0 
0 0 0 0 0 0 0 0 0 
0 0 0 0 0 0 0 0 0 
0 0 0 0 0 0 0 0 0 
0 0 0 0 0 0 0 0 0 
0 0 0 0 0 0 0 0 0 
0 0 0 0 0 0 0 0 0 
0 0 0 0 0 0 0 0 0 
0 0 0 0 0 0 0 0 0 
0 0 0 0 0 0 0 0 0 
0 0 0 0 0 0 0 0 0 
0 0 0 0 0 0 0 0 0 
0 0 0 0 0 0 0 0 0 
0 0 0 0 0 0 0 0 0 
0 0 0 0 0 0 0 0 0 
0 0 0 0 0 0 0 0 0 
0 0 0 0 0 0 0 0 0 
0 0 0 0 0 0 0 0 0 
0 0 0 0 0 0 0 0 0 
0 0 0 0 0 0 0 0 0 
0 0 0 0 0 0 0 0 0 
0 0 0 0 0 0 0 0 0 
0 0 0 0 0 0 0 0 0 
0 0 0 0 0 0 0 0 0 
0 0 0 0 0 0 0 0 0 
0 0 0 0 0 0 0 0 0 
0 0 0 0 0 0 0 0 0 
0 0 0 0 0 0 0 0 0 
0 0 0 0 0 0 0 0 0 
0 0 0 0 0 0 0 0 0 
0 0 0 0 0 0 0 0 0 
0 0 0 0 0 0 0 0 0 
0 0 0 0 0 0 0 0 0 
0 0 0 0 0 0 0 0 0 
0 0 0 0 0 0 0 0 0 
0 0 0 0 0 0 0 0 0 
0 0 0 0 0 0 0 0 0 
0 0 0 0 0 0 0 0 0 
0 0 0 0 0 0 0 0 0 
0 0 0 0 0 0 0 0 0 
0 0 0 0 0 0 0 0 0 
0 0 0 0 0 0 0 0 0 
0 0 0 0 0 0 0 0 0 
0 0 0 0 0 0 0 0 0 
0 0 0 0 0 0 0 0 0 
0 0 0 0 0 0 0 0 0 
0 0 0 0 0 0 0 0 0 
0 0 0 0 0 0 0 0 0 
0 0 0 0 0 0 0 0 0 
0 0 0 0 0 0 0 0 0 
0 0 0 0 0 0 0 0 0 
0 0 0 0 0 0 0 0 0 
0 0 0 0 0 0 0 0 0 
0 0 0 0 0 0 0 0 0 
0 0 0 0 0 0 0 0 0 
0 0 0 0 0 0 0 0 0 
0 0 0 0 0 0 0 0 0 
0 0 0 0 0 0 0 0 0 
0 0 0 0 0 0 0 0 0 
0 0 0 0 0 0 0 0 0 
0 0 0 0 0 0 0 0 0 
0 0 0 0 0 0 0 0 0 
0 0 0 0 0 0 0 0 0 
0 0 0 0 0 0 0 0 0 
0 0 0 0 0 0 0 0 0 
0 0 0 0 0 0 0 0 0 
0 0 0 0 0 0 0 0 0 
0 0 0 0 0 0 0 0 0 
0 0 0 0 0 0 0 0 0 
0 0 0 0 0 0 0 0 0 
0 0 0 0 0 0 0 0 0 
0 0 0 0 0 0 0 0 0 
0 0 0 0 0 0 0 0 0 
0 0 0 0 0 0 0 0 0 
0 0 0 
v 3 1000 double
0.014737475011 0.46270382387 -0.015029505741 -0.26397075496 0.23957419837 -0.045591194937 -0.26491999034 0.42806692891 -0.010119242267 
-0.0083492774345 -0.0014169057368 0.0045638456397 -0.011332803227 -0.0032180475786 0.01665564616 -0.01210524216 0.0011614569736 0.0071447305422 
-0.001883213103 -0.010442935165 0.002450494427 0.002374981462 -0.034853790271 -0.0171066345 -0.015100001094 -0.005415022095 0.0049509762505 
-0.017782555282 -0.0034912651699 0.018139600445 -0.0185882146 0.00038639407934 0.0037350701981 -0.022626417941 -0.0016056845298 -0.016605523377 
-0.023233662858 -0.0048727534125 -0.018555076416 -0.023621706371 -0.012079020214 -0.016849117913 -0.017243855127 -0.0016005880179 -0.011957463876 
-0.012875551714 0.0022036422531 -0.0046267233687 -0.14352670043 -0.10177014673 0.038649260509 -0.23980956427 0.0591304189 -0.028427443989 
-0.0096564524179 0.009658323241 0.017722884077 -0.0084319817792 0.0029719021881 0.027182221446 -0.017559870412 -0.015238724643 0.026478760518 
-0.016765374652 0.0011616292805 0.010742964992 -0.018125503746 0.00037164684026 -0.0115036437 -0.019775714126 -0.0036640847393 -0.014191325105 
-0.023017041234 -0.0098155806532 -0.015402663737 -0.028656923234 -0.0013691255563 -0.03470769515 -0.018261961607 0.0029741158607 -0.021900851996 
-0.011750236919 0.009223913822 0.0026856908786 -0.028436940352 -0.0052598713483 0.016941613831 -0.028526337313 -0.023997541342 -0.0032855824686 
-0.32344082159 -0.11958859976 0.016797136197 -0.011070308842 0.0072664176576 0.023346095377 -0.0040785209533 -0.0046949565456 0.014218174854 
-0.011733038692 -0.001744910033 -0.0091454202427 -0.022165710969 0.0078645937651 -0.010698195661 -0.024968275056 -0.0019865729763 -0.020631437814 
-0.029093445606 -0.0024655112895 -0.023951422823 -0.012008883303 0.005789611583 -0.0081818951505 -0.0049576428511 -0.00093267759557 -0.0013790955868 
-0.01483264178 -0.021277402735 0.013862997511 0.004947952854 -0.0056535300022 0.014345589164 -0.006439081086 -0.005711677809 0.0036183373418 
-0.024300732534 -0.011331598755 -0.0037053068138 -0.00017880822422 -0.011948900791 -0.0030779392119 -0.0085031143005 0.0068786255668 0.0091704638673 
-0.0068241414482 0.020883595121 -0.0070878379052 0.005495467073 0.001609681917 -0.015453645743 0.0013811876503 -0.0076166808192 0.011421228176 
-0.0027675800173 -0.034323480948 -0.017227883704 -0.0080690627807 -0.015203833121 0.0043621258817 -0.0064571162449 -0.0058208385923 0.017117124046 
-0.0080016966253 -0.009948102726 0.0013191027712 -0.012536959294 -0.010521964665 -0.0092919646235 -0.017612299234 -0.016099515962 0.00013440574036 
-0.014794093466 0.020373385963 -0.014307351453 0.020556910852 -0.0025573539498 0.062183120759 0.063336458483 0.12695069273 -0.015448103523 
0.23186686891 0.37182868637 0.3031576406 -0.0081415823346 -0.0042731397479 0.012139768201 0.034087900698 0.0066914099637 0.015364377344 
-0.0061714300015 -0.0029338025242 0.022376780026 -0.0033275108064 0.00092933181241 -0.0012521755003 -0.0024472305874 -0.014465981795 0.0023991157276 
-0.0075659662423 0.0088618370261 0.00020484266101 -0.0059155989441 -0.0011165106138 0.028977214639 -0.0062892345412 -0.0011516105415 0.01257330092 
0.0051277323372 -0.010709185663 0.007330029117 -0.0089558710065 0.0069349643063 -0.0073294988662 -0.01472373815 -0.0024751026951 -0.012483850997 
-0.017321633036 0.012026187237 -0.014833722994 -0.021862162591 0.0029972587504 -0.0048033090757 0.00016783772272 0.0018834296947 0.023956741805 
-0.0047849194343 0.0021910248423 0.020075044331 -0.0037121247675 0.0017712308078 0.018678204434 -0.0089488570392 0.0091372581978 -0.0019165395655 
-0.025290892137 0.0070581474634 -0.029922588192 -0.021938651677 0.0026405416663 -0.028622953953 -0.021551205196 0.0017350911518 -0.023682904763 
-0.019821717868 0.013176501053 -0.012751771658 -0.021863311366 0.016175129854 -0.0075738865325 -0.031272609316 0.012885855328 0.0096425175251 
-0.037256068146 -0.034032661939 -0.010396106134 -0.20400368844 -0.053573227054 -0.0080408743489 -0.40322989709 0.022559839271 0.053458389536 
0.0028025705354 0.017725198743 0.029959962478 0.0058680858766 -0.0063681199984 0.018830618709 0.0055878079037 0.001407147445 0.023186295393 
-0.0032769094118 0.00073821196504 0.015027258287 -0.0050423923769 0.0022379838836 -0.0075556904096 -0.01508229823 -0.0054678016515 -0.018977572234 
-0.010559291463 -0.0060464736016 -0.0010720060799 -0.013831667254 0.0029851754713 -0.0034893700658 -0.0097778596609 0.022859644587 -0.0035803506846 
-0.013257715819 0.011816277239 0.011391294982 -0.012170949865 -0.016247840186 0.017885749026 0.016412608236 -0.018500749727 0.0043092793846 
0.0081942112504 -0.0077191682017 0.027468661859 0.0050179505754 -0.012338351512 0.015461473889 0.0066290612172 0.0020573526256 0.013759265813 
0.0063636356583 -0.0026103011119 0.013438825312 0.0054294317907 -0.0027051624702 0.012275926469 -0.0040663700075 -0.0044489077139 0.013068296548 
-0.0070485238162 -0.011114345397 0.0033233239096 -0.014963114737 -0.00045523149773 -0.0055073295233 -0.013254403631 -0.010769455124 -0.011175531597 
-0.019809932598 -0.013350006658 0.0037470338952 -0.01173307501 0.0040327347011 -0.01098672846 -0.0028073244307 0.0030931042464 -0.013661524434 
-0.0057409405427 0.0084211979598 -0.019405323015 -0.0050904602643 -0.0122648754 0.021688342175 -0.00032079444928 -0.018960722654 0.027737447335 
-0.0097306517236 0.0066264260506 0.016585971804 0.0043356068164 -0.0075930851454 0.006868573749 -0.01218856161 -0.0036091044422 -0.0070694772795 
-0.020791038058 -0.014105797028 0.0013503251517 -0.029941635618 0.0073102642523 -0.012129435961 -0.020173886517 0.0033688967399 -0.017487870007 
-0.019661766728 -0.013774081857 -0.0037827072171 -0.02610165037 -0.0028899696378 -0.0023653300776 0.0089697913823 -0.00075676368735 0.016053247747 
-0.0036399875291 0.0013717782718 0.0014851809481 -0.0061914631681 0.012411397382 0.00046930520433 0.0072860634725 0.0016312757599 -0.00049537576141 
-0.010082881423 -0.0048286350631 0.0051173392572 0.01337424251 -0.0051654277213 0.033242013765 0.0042631875085 0.0021893573458 0.025368017924 
0.0049313626693 0.010803835151 -0.0082516223741 -0.013761961351 0.051885513132 -0.018277492369 -0.034197940455 0.044551896644 -0.014174357952 
-0.026512214843 0.025183152484 -0.015165556272 -0.023593659552 0.0089612527492 -0.027747904539 -0.0042583236951 -0.0045873981865 0.015000167876 
-0.00026107790482 -0.0040304858901 0.02942378379 -0.0071624191436 -0.004280835636 0.017661283866 0.0073623152757 -0.00013368716847 0.026019496677 
0.012912490894 0.010893166638 -0.00086133983476 0.0041459128609 0.022711397148 -0.0070206292419 -0.00021692508453 0.0095354402118 -0.0064483319938 
-0.019787107967 0.018276929255 -0.02737771283 -0.001297131279 0.015714842622 0.0028830381836 -0.017368203226 0.001489592165 0.00089312209325 
-0.014331587935 0.0033834558755 0.0066860058838 0.010865435728 0.0026248123922 0.028025778756 0.0033818063202 -0.0055598257948 0.010095583514 
-0.0015226922824 -0.0089904063666 0.013143881763 0.0026229645201 -0.011362670998 -0.0076745816001 0.0045940388424 -0.0051269143697 -0.0010731025426 
-0.004866522419 -0.0079457344533 -0.00088619096849 -0.010913715922 0.0032602906524 0.0043418445647 -0.026366536449 -0.0013857366346 0.011458956161 
0.47777944978 -0.19508273939 -0.46917935925 0.0064340717208 0.023195660453 0.034897563417 0.0079619479014 0.016497279428 0.032022182121 