# vtk DataFile Version 4.1
Generated by LIGGGHTS
ASCII
DATASET POLYDATA
POINTS 1000 float
-0.00185556 -0.0171472 0.00154592 0.000925969 -0.0165295 0.00154561 0.00587026 -0.0160231 0.00151024 
-0.00100738 -0.0144433 0.00190124 0.00207976 -0.0132488 0.00150614 0.00492702 -0.0133304 0.00169644 
0.00772816 -0.0138673 0.00153625 0.0164823 -0.0126333 0.00187089 0.0219058 -0.0129002 0.00148282 
-0.00566942 -0.0120608 0.00153154 0.00238764 -0.0104283 0.00164894 0.00524647 -0.0104767 0.00149295 
0.00811175 -0.0104172 0.00151421 0.0109614 -0.0103545 0.0014829 0.0135682 -0.0115162 0.00151033 
0.0192212 -0.0119196 0.0015656 0.022863 -0.0103751 0.00241485 -0.00641656 -0.00759456 0.00147557 
-0.00456445 -0.00956103 0.00235228 -0.000411687 -0.00988406 0.00151697 0.00381034 -0.00798251 0.00159467 
0.00665395 -0.00798555 0.00164007 0.0094971 -0.00789698 0.00150869 0.0123078 -0.00790433 0.00206701 
0.014903 -0.00900694 0.00150783 0.0202485 -0.00929946 0.00195455 0.0253325 -0.00906073 0.00185435 
0.0281313 -0.00946197 0.00149824 0.0321807 -0.00789928 0.00157377 -0.0376214 -0.00732035 0.00156851 
-0.0348512 -0.00682874 0.00204141 -0.00362132 -0.00699243 0.00151497 -0.000815857 -0.00711932 0.00206872 
0.00798333 -0.00546318 0.0015303 0.0128991 -0.00516944 0.00148747 0.0155291 -0.00623772 0.0015095 
0.0180886 -0.00749287 0.00148295 0.0236674 -0.00675022 0.00183135 0.0270561 -0.006808 0.00152347 
0.0312151 -0.00521705 0.00169687 -0.0366029 -0.00464644 0.00149519 -0.000933678 -0.00268993 0.00147718 
0.0062619 -0.00317712 0.00151004 0.011106 -0.00298329 0.00181397 0.0174762 -0.00416401 0.00149377 
0.0201684 -0.00376374 0.00229127 0.0229094 -0.00401521 0.00158272 0.0256922 -0.00435095 0.00206808 
0.0285012 -0.00434135 0.00155114 -0.00496782 -0.000426467 0.00207169 -0.00214523 -0.000279305 0.00240794 
0.00400895 -0.00141403 0.00152517 0.00665301 -0.000347143 0.00150421 0.0139681 -0.000140197 0.00198911 
0.0174923 -0.00131911 0.0014702 0.0225739 -0.00118034 0.00161171 0.0347475 -0.00197002 0.00149755 
0.00333348 -0.0154996 0.00270022 0.00557994 -0.0173015 0.00405348 0.00213306 -0.013511 0.00435117 
0.00628238 -0.014546 0.00390921 0.00905001 -0.0128658 0.00384735 0.0145026 -0.013375 0.00378153 
0.000707209 -0.0110874 0.0038466 0.00394034 -0.0113584 0.00385727 0.00698455 -0.0110263 0.00455549 
0.0118336 -0.0123898 0.00358809 0.0100452 -0.0102183 0.00417319 0.017346 -0.0100077 0.00260023 
0.0181333 -0.0122519 0.00417408 0.0212243 -0.0119973 0.00408963 0.0306473 -0.0100098 0.00273245 
-0.00550163 -0.00756813 0.00417698 -0.00270555 -0.0081326 0.00395646 0.00253723 -0.00887681 0.00403383 
0.0134918 -0.00909504 0.00437019 0.015984 -0.00780913 0.00385984 0.0188114 -0.00810159 0.00415902 
0.0214118 -0.00918958 0.00455904 0.0242507 -0.00897203 0.00449213 0.0270743 -0.00903926 0.00411697 
-0.0391487 -0.00517436 0.0026644 -0.0367804 -0.00604709 0.00398739 -0.00748477 -0.00570033 0.00329778 
-0.000393467 -0.00676772 0.00488538 -0.00244789 -0.00531811 0.0035272 0.00277154 -0.00608257 0.00344156 
0.00587752 -0.00688821 0.00416194 0.0135682 -0.0062666 0.0040426 0.0191727 -0.00527195 0.00449824 
0.021076 -0.00680424 0.00301682 0.024315 -0.00611731 0.00454073 0.0271657 -0.00619116 0.00429995 
0.0296109 -0.00734979 0.00269353 0.0319685 -0.00656796 0.00409319 -0.00594044 -0.00341451 0.0040572 
-0.00349156 -0.00278228 0.00273162 -0.00111808 -0.00254054 0.00430296 0.00031028 -0.00469059 0.0030721 
0.00170657 -0.00274115 0.0046102 0.004155 -0.00356555 0.00339927 0.00859522 -0.00317423 0.00313136 
0.0131757 -0.00343477 0.00372211 0.0158004 -0.00451647 0.0037787 0.0180142 -0.00272401 0.00388883 
0.0211915 -0.00329978 0.00491505 0.0239519 -0.00331908 0.00413619 0.026725 -0.00266383 0.00411653 
0.0296809 -0.00485506 0.00408779 0.0305258 -0.00258631 0.00254629 -0.00753157 -0.00158809 0.0025496 
0.000620828 -0.000754772 0.00288577 0.00627622 -0.00172984 0.00396529 0.0132147 -0.00021166 0.00475033 
0.0165423 -0.000254458 0.00391308 0.0199877 -0.000967503 0.00280141 0.0286473 -0.000664532 0.00347954 
0.0324161 -0.00119396 0.00418789 0.00402644 -0.0153504 0.00546232 0.00524152 -0.0128121 0.00592579 
0.0080511 -0.0142287 0.00613718 0.010834 -0.0136201 0.00596152 -0.00297968 -0.0103718 0.00733183 
-0.000403553 -0.0122506 0.00620314 0.00230271 -0.0113373 0.00619293 0.0105294 -0.0109438 0.00687251 
0.0132704 -0.0121416 0.00604147 0.0173892 -0.0123591 0.00691847 0.0196516 -0.0108069 0.00613681 
0.024346 -0.0104394 0.00693812 -0.0052313 -0.00762779 0.00702718 -0.000857289 -0.00949382 0.0056306 
-0.0023778 -0.00759292 0.00710918 0.00161513 -0.00863332 0.0067428 0.00496172 -0.00924378 0.00548969 
0.00890355 -0.00783564 0.00528397 0.0115163 -0.00833482 0.0062876 0.0149896 -0.00844183 0.00670595 
0.01704 -0.00994242 0.00542947 0.0217516 -0.00933246 0.0073888 0.0244241 -0.00758286 0.00698351 
-0.00444018 -0.00531369 0.00556385 0.00158627 -0.00578678 0.00670303 0.00420264 -0.00518868 0.00573762 
0.00647582 -0.00645443 0.00690647 0.00923929 -0.00605057 0.00749656 0.0114562 -0.00550665 0.00580178 
0.0216775 -0.00601274 0.00567058 0.0271963 -0.00683381 0.00708359 -0.0084234 -0.00436367 0.00562251 
-0.00606473 -0.00339471 0.00691486 -0.00367814 -0.00257104 0.00557216 -0.00174177 -0.00459032 0.00618156 
0.00318157 -0.00286177 0.00704949 0.0068272 -0.00432757 0.00504411 0.00943111 -0.00348132 0.00585679 
0.012489 -0.00291529 0.00642222 0.0145726 -0.00486364 0.00632048 0.019141 -0.00368079 0.00687745 
0.0232177 -0.00392112 0.00683013 0.025936 -0.00444795 0.00619598 0.028727 -0.00441818 0.0067456 
-0.0102276 -0.000457328 0.00682246 -0.00769597 -0.00161832 0.00539951 3.25496e-05 -0.00247041 0.00691299 
0.00655131 -0.000258782 0.0063828 0.0151114 -0.00221193 0.00542543 0.0176605 -0.00130708 0.00633636 
0.0225435 -0.0012013 0.00628726 0.0271293 -0.00210896 0.00729718 0.030054 -0.00232016 0.00533947 
0.00352422 -0.0129554 0.00820415 0.00606669 -0.0140455 0.00887839 0.00882512 -0.0147704 0.00884197 
0.0110649 -0.012999 0.00874939 0.00296259 -0.0102029 0.00872252 0.00542924 -0.0113526 0.0095966 
0.00736801 -0.0118664 0.00757349 0.0117682 -0.010272 0.00934732 0.0166466 -0.0107849 0.00917064 
0.0210485 -0.0119452 0.00833661 -0.00448736 -0.00906847 0.00937748 5.46192e-05 -0.00902599 0.00910858 
0.00606644 -0.00883003 0.00843912 0.00955164 -0.0087385 0.00834985 0.0130086 -0.00779225 0.00865029 
0.0157564 -0.00788227 0.00940239 0.0192756 -0.00972187 0.00874909 -0.0072971 -0.00580657 0.00781065 
-0.00315012 -0.00655938 0.00965303 -0.000632641 -0.00581833 0.00850028 0.00385328 -0.00718199 0.00774212 
0.00643 -0.00589753 0.00968387 0.0198826 -0.00718836 0.00756047 0.0224017 -0.00615599 0.00842002 
-0.00965246 -0.00497202 0.00919385 -0.00866421 -0.00264084 0.00787349 -0.00711428 -0.00388578 0.0099219 
-0.00380706 -0.00400107 0.00855603 -0.000586931 -0.00281222 0.00967551 0.00355449 -0.0035125 0.00981253 
0.00739631 -0.00392114 0.00782572 0.0101289 -0.00358057 0.0086255 0.0124859 -0.00262661 0.00996305 
0.0125969 -0.00498928 0.0083736 0.0165439 -0.00329436 0.00804915 0.0187282 -0.00266246 0.00976889 
0.0255672 -0.0038135 0.00896968 -0.0104483 -0.00120999 0.00957184 -0.00517742 -0.00148775 0.00883437 
-0.00247158 -0.00156007 0.00794415 0.00104134 -0.000623484 0.00884851 0.00547822 -0.00190844 0.00844883 
0.0143102 -0.00150575 0.00807726 0.0168654 -0.000635968 0.00900723 0.0201141 -0.00114833 0.00778934 
0.0245932 -0.00122632 0.00827663 0.0298411 -0.00221248 0.00818611 0.00791919 -0.0176123 0.0119324 
-0.0179358 -0.0134532 0.0121774 0.00415378 -0.0135248 0.0109354 0.0081628 -0.0106111 0.0100071 
0.0143117 -0.0100129 0.0106334 0.000779958 -0.00936904 0.0118506 0.00240772 -0.00778072 0.0101244 
0.00774826 -0.00800116 0.0110879 0.0108205 -0.00797581 0.0107806 0.0131708 -0.0080866 0.0124014 
0.0177916 -0.00900142 0.0110732 0.0217295 -0.00988803 0.0101858 -0.00071573 -0.00707472 0.011054 
0.00214824 -0.00576898 0.012134 0.00919049 -0.00565375 0.0103351 0.0140127 -0.00600134 0.0106422 
0.0165916 -0.0065196 0.0117673 0.0189933 -0.00655597 0.0102051 0.0230786 -0.00746648 0.010866 
-0.00312471 -0.00424405 0.0113209 -0.000358585 -0.00441091 0.0120201 0.00488084 -0.00497901 0.0118746 
0.00730698 -0.00361507 0.0111446 0.010117 -0.00320214 0.0114557 0.0173838 -0.00379771 0.0120144 
0.0153196 -0.0025132 0.0105228 0.0207327 -0.00482107 0.0116766 0.0233774 -0.00463737 0.0106141 
0.00156007 -0.00235618 0.0114981 0.00496606 -0.00214223 0.0118947 0.00743186 -0.000775121 0.0115408 
0.0215367 -0.00247921 0.010252 0.0122363 -0.00173131 0.0126682 -0.029956 0.000387688 0.00194572 
-0.00953626 0.000159992 0.00152143 -0.00758189 0.00206547 0.00237964 -0.00358821 0.00201034 0.00149685 
0.0163925 0.00131068 0.00153441 0.0215097 0.0013881 0.00225559 0.032793 0.000103689 0.00166955 
0.0355704 0.00075037 0.00177154 -0.0283057 0.002704 0.00169596 -0.0101523 0.00293683 0.00148728 
-0.00565462 0.00398278 0.00148647 0.0160471 0.00405293 0.00225385 0.0249196 0.00311626 0.00149798 
0.0273411 0.00426663 0.00247556 0.0336181 0.00276038 0.00232444 -0.0119809 0.00729653 0.00198515 
-0.00637922 0.00676566 0.00153825 0.000324587 0.00603747 0.00152464 0.011338 0.00690501 0.00150151 
0.018254 0.00570551 0.00151525 0.0281092 0.00700324 0.00224253 0.0308602 0.00624687 0.00230027 
0.0345038 0.00541789 0.00174814 -0.00374995 0.00992848 0.00221489 0.00114337 0.00876769 0.00152496 
0.00889319 0.00848251 0.00149869 0.0114102 0.00975312 0.00158918 0.0264219 0.00995246 0.00157392 
0.033133 0.007921 0.00189715 -0.0120653 0.0101569 0.00203953 -0.00988639 0.0119383 0.00149497 
-0.00715523 0.0113922 0.00216614 -0.00106289 0.0105789 0.00146654 0.00349339 0.0102284 0.00220406 
0.00620058 0.0109733 0.00155534 0.00904888 0.0113541 0.00160994 0.0139334 0.011028 0.00191635 
0.0191834 0.0118454 0.00197054 0.0240273 0.011433 0.00198857 0.0292554 0.0103012 0.00146048 
0.0310756 0.01243 0.00186847 -0.0115488 0.0141345 0.00225688 -0.00883831 0.0146029 0.00149082 
0.00416871 0.0129562 0.00186015 0.00950898 0.014169 0.00185648 0.0167725 0.0132972 0.00148468 
[...]
POINT_DATA 1000
FIELD FieldData 7
id 1 1000 int
10 41 49 24 266 25 280 297 3 
18 263 22 12 290 285 53 27 302 
36 282 268 251 277 295 37 48 21 
9 141 83 29 17 2 16 50 30 
46 15 39 247 23 43 104 38 33 
7 19 274 309 191 107 235 6 378 
138 164 248 254 1 252 52 262 504 
298 256 535 301 520 56 296 272 32 
270 58 306 258 13 45 294 264 260 
40 51 259 253 28 287 278 31 273 
4 281 305 34 65 304 205 54 47 
303 308 44 8 5 42 289 261 527 
292 279 291 11 35 434 67 14 554 
689 26 267 551 558 761 509 531 555 
544 543 501 533 549 524 525 508 548 
552 526 518 257 521 503 293 534 283 
528 532 286 284 767 507 506 276 255 
510 265 275 300 269 556 307 530 788 
804 529 536 158 299 288 547 807 511 
515 810 773 766 769 787 789 774 782 
751 768 765 776 755 516 797 546 502 
757 522 540 542 538 512 784 519 794 
523 505 764 545 539 557 517 513 790 
752 792 806 541 648 537 271 550 514 
809 801 216 57 775 805 802 781 796 
808 777 795 786 803 778 798 553 758 
791 800 763 759 753 762 783 793 780 
754 772 785 779 756 799 770 760 124 
193 339 102 55 186 136 160 197 357 
199 161 131 242 218 363 89 429 112 
331 384 425 234 237 69 63 206 130 
433 455 227 229 118 243 123 116 211 
238 157 149 169 223 175 204 84 62 
155 203 165 80 178 194 183 472 154 
249 179 222 90 127 310 120 87 332 
208 117 226 86 182 110 64 430 105 
159 407 404 75 231 399 174 484 740 
184 77 60 103 195 367 219 98 236 
360 151 121 177 143 239 156 487 431 
392 496 190 139 749 401 111 114 233 
91 79 20 416 397 323 113 389 482 
72 66 685 393 214 499 209 68 344 
413 202 330 328 380 724 96 232 359 
423 94 212 314 445 119 460 419 313 
101 85 122 73 213 189 333 147 99 
92 317 128 210 246 145 220 241 180 
352 448 142 185 78 88 198 150 61 
100 408 166 428 415 490 93 311 163 
240 462 492 570 346 427 471 387 146 
59 221 115 201 385 465 483 394 391 
82 126 245 196 109 106 412 495 379 
347 435 140 436 167 97 364 376 366 
315 464 491 188 341 451 437 422 463 
418 402 390 447 349 170 168 162 225 
176 439 224 153 334 76 388 81 148 
459 125 603 329 640 565 351 370 320 
95 134 192 207 200 679 709 457 369 
675 132 477 383 596 688 698 449 486 
468 382 129 655 642 632 678 732 365 
673 900 666 629 452 450 454 338 362 
730 680 563 335 398 727 912 438 173 
172 135 355 250 358 625 475 626 707 
498 152 70 466 470 396 456 561 343 
476 340 350 692 473 215 405 181 342 
622 598 494 74 480 137 244 368 373 
461 646 411 377 714 337 420 348 230 
371 386 674 409 406 414 481 474 594 
395 336 444 741 467 319 575 318 400 
722 620 322 728 590 560 171 581 702 
479 485 750 618 432 356 668 500 615 
592 616 71 564 623 442 879 898 228 
426 381 372 638 458 922 326 353 735 
325 571 567 613 577 945 663 652 441 
573 572 876 974 601 695 469 927 981 
992 967 862 703 417 440 747 645 915 
701 566 847 890 936 744 579 670 569 
593 738 930 589 979 316 656 903 611 
591 726 664 607 453 493 619 718 653 
410 658 609 446 870 606 354 217 108 
403 489 682 654 745 650 955 715 562 
361 421 497 488 617 599 610 624 700 
424 710 723 568 634 748 321 614 327 
312 578 828 660 733 739 585 588 743 
996 933 375 672 691 697 816 586 600 
587 621 595 665 597 576 643 651 644 
604 559 818 868 712 716 602 628 639 
662 720 988 734 608 999 708 925 746 
989 631 686 681 848 690 635 811 696 
641 729 693 699 860 853 906 919 612 
574 932 909 704 877 929 958 771 959 
896 649 717 961 886 921 984 971 835 
647 633 711 659 731 817 869 840 837 
942 964 882 814 627 684 843 705 582 
935 871 895 856 855 669 637 924 812 
917 953 657 859 683 584 374 324 671 
345 736 630 914 580 842 954 823 867 
719 742 908 815 824 897 902 583 976 
957 977 713 938 949 478 881 963 836 
721 948 968 826 905 844 694 676 636 
667 834 737 970 857 918 838 725 845 
993 852 889 893 880 944 822 947 987 
865 965 875 687 885 854 829 819 661 
940 952 980 986 827 830 858 978 874 
878 962 821 913 133 861 946 850 939 
928 907 841 997 825 916 941 833 901 
891 931 911 937 985 990 926 975 849 
998 910 813 863 943 888 873 883 677 
866 951 872 969 983 920 706 605 950 
851 846 934 894 1000 960 884 982 995 
956 966 904 973 923 994 831 899 972 
887 820 832 187 991 892 839 443 864 
144 
type 1 1000 int
1 1 1 1 1 1 1 1 1 
1 1 1 1 1 1 1 1 1 
1 1 1 1 1 1 1 1 1 
1 1 1 1 1 1 1 1 1 
1 1 1 1 1 1 1 1 1 
1 1 1 1 1 1 1 1 1 
1 1 1 1 1 1 1 1 1 
1 1 1 1 1 1 1 1 1 
1 1 1 1 1 1 1 1 1 
1 1 1 1 1 1 1 1 1 
1 1 1 1 1 1 1 1 1 
1 1 1 1 1 1 1 1 1 
1 1 1 1 1 1 1 1 1 
1 1 1 1 1 1 1 1 1 
1 1 1 1 1 1 1 1 1 
1 1 1 1 1 1 1 1 1 
1 1 1 1 1 1 1 1 1 
1 1 1 1 1 1 1 1 1 
1 1 1 1 1 1 1 1 1 
1 1 1 1 1 1 1 1 1 
1 1 1 1 1 1 1 1 1 
1 1 1 1 1 1 1 1 1 
1 1 1 1 1 1 1 1 1 
1 1 1 1 1 1 1 1 1 
1 1 1 1 1 1 1 1 1 
1 1 1 1 1 1 1 1 1 
1 1 1 1 1 1 1 1 1 
1 1 1 1 1 1 1 1 1 
1 1 1 1 1 1 1 1 1 
1 1 1 1 1 1 1 1 1 
1 1 1 1 1 1 1 1 1 
1 1 1 1 1 1 1 1 1 
1 1 1 1 1 1 1 1 1 
1 1 1 1 1 1 1 1 1 
1 1 1 1 1 1 1 1 1 
1 1 1 1 1 1 1 1 1 
1 1 1 1 1 1 1 1 1 
1 1 1 1 1 1 1 1 1 
1 1 1 1 1 1 1 1 1 
1 1 1 1 1 1 1 1 1 
1 1 1 1 1 1 1 1 1 
1 1 1 1 1 1 1 1 1 
1 1 1 1 1 1 1 1 1 
1 1 1 1 1 1 1 1 1 
1 1 1 1 1 1 1 1 1 
1 1 1 1 1 1 1 1 1 
1 1 1 1 1 1 1 1 1 
1 1 1 1 1 1 1 1 1 
1 1 1 1 1 1 1 1 1 
1 1 1 1 1 1 1 1 1 
1 1 1 1 1 1 1 1 1 
1 1 1 1 1 1 1 1 1 
1 1 1 1 1 1 1 1 1 
1 1 1 1 1 1 1 1 1 
1 1 1 1 1 1 1 1 1 
1 1 1 1 1 1 1 1 1 
1 1 1 1 1 1 1 1 1 
1 1 1 1 1 1 1 1 1 
1 1 1 1 1 1 1 1 1 
1 1 1 1 1 1 1 1 1 
1 1 1 1 1 1 1 1 1 
1 1 1 1 1 1 1 1 1 
1 1 1 1 1 1 1 1 1 
1 1 1 1 1 1 1 1 1 
1 1 1 1 1 1 1 1 1 
1 1 1 1 1 1 1 1 1 
1 1 1 1 1 1 1 1 1 
1 1 1 1 1 1 1 1 1 
1 1 1 1 1 1 1 1 1 
1 1 1 1 1 1 1 1 1 
1 1 1 1 1 1 1 1 1 
1 1 1 1 1 1 1 1 1 
1 1 1 1 1 1 1 1 1 
1 1 1 1 1 1 1 1 1 
1 1 1 1 1 1 1 1 1 
1 1 1 1 1 1 1 1 1 
1 1 1 1 1 1 1 1 1 
1 1 1 1 1 1 1 1 1 
1 1 1 1 1 1 1 1 1 
1 1 1 1 1 1 1 1 1 
1 1 1 1 1 1 1 1 1 
1 1 1 1 1 1 1 1 1 
1 1 1 1 1 1 1 1 1 
1 1 1 1 1 1 1 1 1 
1 1 1 1 1 1 1 1 1 
1 1 1 1 1 1 1 1 1 
1 1 1 1 1 1 1 1 1 
1 1 1 1 1 1 1 1 1 
1 1 1 1 1 1 1 1 1 
1 1 1 1 1 1 1 1 1 
1 1 1 1 1 1 1 1 1 
1 1 1 1 1 1 1 1 1 
1 1 1 1 1 1 1 1 1 
1 1 1 1 1 1 1 1 1 
1 1 1 1 1 1 1 1 1 
1 1 1 1 1 1 1 1 1 
1 1 1 1 1 1 1 1 1 
1 1 1 1 1 1 1 1 1 
1 1 1 1 1 1 1 1 1 
1 1 1 1 1 1 1 1 1 
1 1 1 1 1 1 1 1 1 
1 1 1 1 1 1 1 1 1 
1 1 1 1 1 1 1 1 1 
1 1 1 1 1 1 1 1 1 
1 1 1 1 1 1 1 1 1 
1 1 1 1 1 1 1 1 1 
1 1 1 1 1 1 1 1 1 
1 1 1 1 1 1 1 1 1 
1 1 1 1 1 1 1 1 1 
1 1 1 1 1 1 1 1 1 
1 1 1 1 1 1 1 1 1 
1 
i 3 1000 int
0 0 0 0 0 0 0 0 0 
0 0 0 0 0 0 0 0 0 
0 0 0 0 0 0 0 0 0 
0 0 0 0 0 0 0 0 0 
0 0 0 0 0 0 0 0 0 
0 0 0 0 0 0 0 0 0 
0 0 0 0 0 0 0 0 0 
0 0 0 0 0 0 0 0 0 
0 0 0 0 0 0 0 0 0 
0 0 0 0 0 0 0 0 0 
0 0 0 0 0 0 0 0 0 
0 0 0 0 0 0 0 0 0 
0 0 0 0 0 0 0 0 0 
0 0 0 0 0 0 0 0 0 
0 0 0 0 0 0 0 0 0 
0 0 0 0 0 0 0 0 0 
0 0 0 0 0 0 0 0 0 
0 0 0 0 0 0 0 0 0 
0 0 0 0 0 0 0 0 0 
0 0 0 0 0 0 0 0 0 
0 0 0 0 0 0 0 0 0 
0 0 0 0 0 0 0 0 0 
0 0 0 0 0 0 0 0 0 
0 0 0 0 0 0 0 0 0 
0 0 0 0 0 0 0 0 0 
0 0 0 0 0 0 0 0 0 
0 0 0 0 0 0 0 0 0 
0 0 0 0 0 0 0 0 0 
0 0 0 0 0 0 0 0 0 
0 0 0 0 0 0 0 0 0 
0 0 0 0 0 0 0 0 0 
0 0 0 0 0 0 0 0 0 
0 0 0 0 0 0 0 0 0 
0 0 0 0 0 0 0 0 0 
0 0 0 0 0 0 0 0 0 
0 0 0 0 0 0 0 0 0 
0 0 0 0 0 0 0 0 0 
0 0 0 0 0 0 0 0 0 
0 0 0 0 0 0 0 0 0 
0 0 0 0 0 0 0 0 0 
0 0 0 0 0 0 0 0 0 
0 0 0 0 0 0 0 0 0 
0 0 0 0 0 0 0 0 0 
0 0 0 0 0 0 0 0 0 
0 0 0 0 0 0 0 0 0 
0 0 0 0 0 0 0 0 0 
0 0 0 0 0 0 0 0 0 
0 0 0 0 0 0 0 0 0 
0 0 0 0 0 0 0 0 0 
0 0 0 0 0 0 0 0 0 
0 0 0 0 0 0 0 0 0 
0 0 0 0 0 0 0 0 0 
0 0 0 0 0 0 0 0 0 
0 0 0 0 0 0 0 0 0 
0 0 0 0 0 0 0 0 0 
0 0 0 0 0 0 0 0 0 
0 0 0 0 0 0 0 0 0 
0 0 0 0 0 0 0 0 0 
0 0 0 0 0 0 0 0 0 
0 0 0 0 0 0 0 0 0 
0 0 0 0 0 0 0 0 0 
0 0 0 0 0 0 0 0 0 
0 0 0 0 0 0 0 0 0 
0 0 0 0 0 0 0 0 0 
0 0 0 0 0 0 0 0 0 
0 0 0 0 0 0 0 0 0 
0 0 0 0 0 0 0 0 0 
0 0 0 0 0 0 0 0 0 
0 0 0 0 0 0 0 0 0 
0 0 0 0 0 0 0 0 0 
0 0 0 0 0 0 0 0 0 
0 0 0 0 0 0 0 0 0 
0 0 0 0 0 0 0 0 0 
0 0 0 0 0 0 0 0 0 
0 0 0 0 0 0 0 0 0 
0 0 0 0 0 0 0 0 0 
0 0 0 0 0 0 0 0 0 
0 0 0 0 0 0 0 0 0 
0 0 0 0 0 0 0 0 0 
0 0 0 0 0 0 0 0 0 
0 0 0 0 0 0 0 0 0 
0 0 0 0 0 0 0 0 0 
0 0 0 0 0 0 0 0 0 
0 0 0 0 0 0 0 0 0 
0 0 0 0 0 0 0 0 0 
0 0 0 0 0 0 0 0 0 
0 0 0 0 0 0 0 0 0 
0 0 0 0 0 0 0 0 0 
0 0 0 0 0 0 0 0 0 
0 0 0 0 0 0 0 0 0 
0 0 0 0 0 0 0 0 0 
0 0 0 0 0 0 0 0 0 
0 0 0 0 0 0 0 0 0 
0 0 0 0 0 0 0 0 0 
0 0 0 0 0 0 0 0 0 
0 0 0 0 0 0 0 0 0 
0 0 0 0 0 0 0 0 0 
0 0 0 0 0 0 0 0 0 
0 0 0 0 0 0 0 0 0 
0 0 0 0 0 0 0 0 0 
0 0 0 0 0 0 0 0 0 
0 0 0 0 0 0 0 0 0 
0 0 0 0 0 0 0 0 0 
0 0 0 0 0 0 0 0 0 
0 0 0 0 0 0 0 0 0 
0 0 0 0 0 0 0 0 0 
0 0 0 0 0 0 0 0 0 
0 0 0 0 0 0 0 0 0 
0 0 0 0 0 0 0 0 0 
0 0 0 0 0 0 0 0 0 
0 0 0 0 0 0 0 0 0 
0 0 0 0 0 0 0 0 0 
0 0 0 0 0 0 0 0 0 
0 0 0 0 0 0 0 0 0 
0 0 0 0 0 0 0 0 0 
0 0 0 0 0 0 0 0 0 
0 0 0 0 0 0 0 0 0 
0 0 0 0 0 0 0 0 0 
0 0 0 0 0 0 0 0 0 
0 0 0 0 0 0 0 0 0 
0 0 0 0 0 0 0 0 0 
0 0 0 0 0 0 0 0 0 
0 0 0 0 0 0 0 0 0 
0 0 0 0 0 0 0 0 0 
0 0 0 0 0 0 0 0 0 
0 0 0 0 0 0 0 0 0 
0 0 0 0 0 0 0 0 0 
0 0 0 0 0 0 0 0 0 
0 0 0 0 0 0 0 0 0 
0 0 0 0 0 0 0 0 0 
0 0 0 0 0 0 0 0 0 
0 0 0 0 0 0 0 0 0 
0 0 0 0 0 0 0 0 0 
0 0 0 0 0 0 0 0 0 
0 0 0 0 0 0 0 0 0 
0 0 0 0 0 0 0 0 0 
0 0 0 0 0 0 0 0 0 
0 0 0 0 0 0 0 0 0 
0 0 0 0 0 0 0 0 0 
0 0 0 0 0 0 0 0 0 
0 0 0 0 0 0 0 0 0 
0 0 0 0 0 0 0 0 0 
0 0 0 0 0 0 0 0 0 
0 0 0 0 0 0 0 0 0 
0 0 0 0 0 0 0 0 0 
0 0 0 0 0 0 0 0 0 
0 0 0 0 0 0 0 0 0 
0 0 0 0 0 0 0 0 0 
0 0 0 0 0 0 0 0 0 
0 0 0 0 0 0 0 0 0 
0 0 0 0 0 0 0 0 0 
0 0 0 0 0 0 0 0 0 
0 0 0 0 0 0 0 0 0 
0 0 0 0 0 0 0 0 0 
0 0 0 0 0 0 0 0 0 
0 0 0 0 0 0 0 0 0 
0 0 0 0 0 0 0 0 0 
0 0 0 0 0 0 0 0 0 
0 0 0 0 0 0 0 0 0 
0 0 0 0 0 0 0 0 0 
0 0 0 0 0 0 0 0 0 
0 0 0 0 0 0 0 0 0 
0 0 0 0 0 0 0 0 0 
0 0 0 0 0 0 0 0 0 
0 0 0 0 0 0 0 0 0 
0 0 0 0 0 0 0 0 0 
0 0 0 0 0 0 0 0 0 
0 0 0 0 0 0 0 0 0 
0 0 0 0 0 0 0 0 0 
0 0 0 0 0 0 0 0 0 
0 0 0 0 0 0 0 0 0 
0 0 0 0 0 0 0 0 0 
0 0 0 0 0 0 0 0 0 
0 0 0 0 0 0 0 0 0 
0 0 0 0 0 0 0 0 0 
0 0 0 0 0 0 0 0 0 
0 0 0 0 0 0 0 0 0 
0 0 0 0 0 0 0 0 0 
0 0 0 0 0 0 0 0 0 
0 0 0 0 0 0 0 0 0 
0 0 0 0 0 0 0 0 0 
0 0 0 0 0 0 0 0 0 
0 0 0 0 0 0 0 0 0 
0 0 0 0 0 0 0 0 0 
0 0 0 0 0 0 0 0 0 
0 0 0 0 0 0 0 0 0 
0 0 0 0 0 0 0 0 0 
0 0 0 0 0 0 0 0 0 
0 0 0 0 0 0 0 0 0 
0 0 0 0 0 0 0 0 0 
0 0 0 0 0 0 0 0 0 
0 0 0 0 0 0 0 0 0 
0 0 0 0 0 0 0 0 0 
0 0 0 0 0 0 0 0 0 
0 0 0 0 0 0 0 0 0 
0 0 0 0 0 0 0 0 0 
0 0 0 0 0 0 0 0 0 
0 0 0 0 0 0 0 0 0 
0 0 0 0 0 0 0 0 0 
0 0 0 0 0 0 0 0 0 
0 0 0 0 0 0 0 0 0 
0 0 0 0 0 0 0 0 0 
0 0 0 0 0 0 0 0 0 
0 0 0 0 0 0 0 0 0 
0 0 0 0 0 0 0 0 0 
0 0 0 0 0 0 0 0 0 
0 0 0 0 0 0 0 0 0 
0 0 0 0 0 0 0 0 0 
0 0 0 0 0 0 0 0 0 
0 0 0 0 0 0 0 0 0 
0 0 0 0 0 0 0 0 0 
0 0 0 0 0 0 0 0 0 
0 0 0 0 0 0 0 0 0 
0 0 0 0 0 0 0 0 0 
0 0 0 0 0 0 0 0 0 
0 0 0 0 0 0 0 0 0 
0 0 0 0 0 0 0 0 0 
0 0 0 0 0 0 0 0 0 
0 0 0 0 0 0 0 0 0 
0 0 0 0 0 0 0 0 0 
0 0 0 0 0 0 0 0 0 
0 0 0 0 0 0 0 0 0 
0 0 0 0 0 0 0 0 0 
0 0 0 0 0 0 0 0 0 
0 0 0 0 0 0 0 0 0 
0 0 0 0 0 0 0 0 0 
0 0 0 0 0 0 0 0 0 
0 0 0 0 0 0 0 0 0 
0 0 0 0 0 0 0 0 0 
0 0 0 0 0 0 0 0 0 
0 0 0 0 0 0 0 0 0 
0 0 0 0 0 0 0 0 0 
0 0 0 0 0 0 0 0 0 
0 0 0 0 0 0 0 0 0 
0 0 0 0 0 0 0 0 0 
0 0 0 0 0 0 0 0 0 
0 0 0 0 0 0 0 0 0 
0 0 0 0 0 0 0 0 0 
0 0 0 0 0 0 0 0 0 
0 0 0 0 0 0 0 0 0 
0 0 0 0 0 0 0 0 0 
0 0 0 0 0 0 0 0 0 
0 0 0 0 0 0 0 0 0 
0 0 0 0 0 0 0 0 0 
0 0 0 0 0 0 0 0 0 
0 0 0 0 0 0 0 0 0 
0 0 0 0 0 0 0 0 0 
0 0 0 0 0 0 0 0 0 
0 0 0 0 0 0 0 0 0 
0 0 0 0 0 0 0 0 0 
0 0 0 0 0 0 0 0 0 
0 0 0 0 0 0 0 0 0 
0 0 0 0 0 0 0 0 0 
0 0 0 0 0 0 0 0 0 
0 0 0 0 0 0 0 0 0 
0 0 0 0 0 0 0 0 0 
0 0 0 0 0 0 0 0 0 
0 0 0 0 0 0 0 0 0 
0 0 0 0 0 0 0 0 0 
0 0 0 0 0 0 0 0 0 
0 0 0 0 0 0 0 0 0 
0 0 0 0 0 0 0 0 0 
0 0 0 0 0 0 0 0 0 
0 0 0 0 0 0 0 0 0 
0 0 0 0 0 0 0 0 0 
0 0 0 0 0 0 0 0 0 
0 0 0 0 0 0 0 0 0 
0 0 0 0 0 0 0 0 0 
0 0 0 0 0 0 0 0 0 
0 0 0 0 0 0 0 0 0 
0 0 0 0 0 0 0 0 0 
0 0 0 0 0 0 0 0 0 
0 0 0 0 0 0 0 0 0 
0 0 0 0 0 0 0 0 0 
0 0 0 0 0 0 0 0 0 
0 0 0 0 0 0 0 0 0 
0 0 0 0 0 0 0 0 0 
0 0 0 0 0 0 0 0 0 
0 0 0 0 0 0 0 0 0 
0 0 0 0 0 0 0 0 0 
0 0 0 0 0 0 0 0 0 
0 0 0 0 0 0 0 0 0 
0 0 0 0 0 0 0 0 0 
0 0 0 0 0 0 0 0 0 
0 0 0 0 0 0 0 0 0 
0 0 0 0 0 0 0 0 0 
0 0 0 0 0 0 0 0 0 
0 0 0 0 0 0 0 0 0 
0 0 0 0 0 0 0 0 0 
0 0 0 0 0 0 0 0 0 
0 0 0 0 0 0 0 0 0 
0 0 0 0 0 0 0 0 0 
0 0 0 0 0 0 0 0 0 
0 0 0 0 0 0 0 0 0 
0 0 0 0 0 0 0 0 0 
0 0 0 0 0 0 0 0 0 
0 0 0 0 0 0 0 0 0 
0 0 0 0 0 0 0 0 0 
0 0 0 0 0 0 0 0 0 
0 0 0 0 0 0 0 0 0 
0 0 0 0 0 0 0 0 0 
0 0 0 0 0 0 0 0 0 
0 0 0 0 0 0 0 0 0 
0 0 0 0 0 0 0 0 0 
0 0 0 0 0 0 0 0 0 
0 0 0 0 0 0 0 0 0 
0 0 0 0 0 0 0 0 0 
0 0 0 0 0 0 0 0 0 
0 0 0 0 0 0 0 0 0 
0 0 0 0 0 0 0 0 0 
0 0 0 0 0 0 0 0 0 
0 0 0 0 0 0 0 0 0 
0 0 0 0 0 0 0 0 0 
0 0 0 0 0 0 0 0 0 
0 0 0 0 0 0 0 0 0 
0 0 0 0 0 0 0 0 0 
0 0 0 0 0 0 0 0 0 
0 0 0 0 0 0 0 0 0 
0 0 0 0 0 0 0 0 0 
0 0 0 0 0 0 0 0 0 
0 0 0 0 0 0 0 0 0 
0 0 0 0 0 0 0 0 0 
0 0 0 0 0 0 0 0 0 
0 0 0 0 0 0 0 0 0 
0 0 0 0 0 0 0 0 0 
0 0 0 0 0 0 0 0 0 
0 0 0 0 0 0 0 0 0 
0 0 0 0 0 0 0 0 0 
0 0 0 0 0 0 0 0 0 
0 0 0 0 0 0 0 0 0 
0 0 0 0 0 0 0 0 0 
0 0 0 0 0 0 0 0 0 
0 0 0 0 0 0 0 0 0 
0 0 0 
v 3 1000 double
-0.010297679834 0.10618361911 0.065595483146 0.024406593101 -0.0048786858234 -0.063724851945 0.0016759866346 0.0014522010908 0.0012589582235 
0.086686090203 0.08810053385 -0.12648867104 -0.0006173969057 -0.0011005486662 0.0030265319475 0.002552009908 0.0018165438516 -0.00077428484935 
0.0067200226897 -0.00094039364526 0.0044261703325 0.0032352818399 -0.0034623424074 0.0054843411602 0.0014322246571 0.0035591169151 -0.0026914682226 
-0.034958266815 0.019705633406 0.0017481541608 0.00015854429197 0.00098387604236 -0.0015848556214 0.0038451013495 -0.00059292851469 0.0012907498392 
0.0064269114501 -0.0014640565359 0.00066902750412 0.0084356479582 -0.00011170801661 0.0040604587043 0.0053215045102 0.0053537847593 0.00084001571942 
0.0017733792043 0.0030455814206 -0.0024893198921 0.00032256400532 0.0050034772691 -0.0050835172808 -0.011210257259 0.0053637363434 -0.0012487978923 
-0.0080533337793 0.0086196897443 -0.0034776911967 0.0045377394593 0.0040763217374 -0.0083845505671 0.0054179450186 0.0002943710395 -0.0065220403488 
0.0056186959289 -0.0015468499664 -0.0037164253509 0.0058229748176 -0.00048222550377 -0.0077339417733 0.003925408026 0.0013697937627 -0.0014020544337 
-0.00057280818417 0.0041789102051 0.0049105707874 -0.0015293932531 0.0051849080606 -0.0026842182787 -0.00021454190214 0.00041606255465 -0.0050920210719 
0.0016224443895 -0.0057560917945 0.0029541972232 0.0028121987745 -0.011483287435 0.011854654766 0.15973161032 0.055164953111 -0.01831529546 
0.15801991909 0.02907553392 -0.003285182477 -0.0022939740783 0.0096189589904 -0.0030345062342 0.0023836391215 0.0039882174874 -0.010065733224 
0.0023313256464 -0.0036146108663 -0.0015129566684 -7.5687632266e-05 -0.0012915264934 0.0026063128818 -0.0010180049861 0.0022444714987 0.004853537063 
-0.0034234989563 0.0041501755455 0.0020286979668 -0.0012110684965 0.002746459338 -0.007738028507 0.0038216873389 -0.0034173131427 -0.0066691052916 
0.0060046550733 -0.0081600383711 -0.00038491200485 0.17532427923 0.048634964038 0.011398380987 0.0033275765292 0.0049540025322 -0.0022252451339 
0.0017602725506 -0.0048225246088 -0.002223525814 -0.006196639727 -0.0089466583426 -0.0014328308982 -0.0034325198112 0.0040004444233 0.00071100658318 
-0.0022213440602 0.0030540402517 -0.0024440767994 -0.0027006780094 0.00044599583357 -0.007775497616 0.0031619073122 -0.00019898118077 -0.011259412244 
0.0066127616381 -0.0038708998183 -0.0084339952108 -0.00012202042067 -0.0053528998699 -0.011746264983 -0.0039978178003 -0.0027309910056 -1.9108209965e-05 
0.00084426729084 -0.0049576743499 0.00055196039485 0.0049142645491 -0.0034175095894 -0.0012911861999 0.004584176971 0.0054535477786 -0.0038163470294 
-0.0021145366697 0.0050576661109 -0.00067731350181 -0.0012012662794 0.0018033372995 -0.004770151084 0.013312552914 0.004096698869 -0.00059101452974 
0.00036954875262 -3.6754586043e-05 -0.0029916501807 -0.007047781987 0.00069141647431 -0.0078684689354 -0.00087779901975 0.00055466117284 -0.00049316705828 
0.0020905631603 0.005763375922 -0.00026592937069 0.0053768819587 0.012109093255 0.0073526024369 0.0086693148013 0.0087068836741 0.019151780437 
0.0028936938393 0.0034972784889 -0.0026618330029 0.0013633366581 0.0020517654171 0.00042965875128 -0.0011388816921 0.012907613299 -0.0028095583858 
0.010823949244 0.0069677593821 0.0088627847983 0.0075977684587 0.009959298795 0.0033145183743 0.00075257427905 0.0018276108728 0.00068148481674 
0.0063677920902 0.00048370624277 -0.0018534386744 0.005886361699 0.0038170882531 -0.0030167353033 -0.0033995402318 -0.0053613428859 0.015108040336 
-0.0054361718191 0.0064622202153 -0.0022562485402 -0.00035683753825 0.0039733065478 -0.0042649411753 -0.0003932278164 0.0045322123472 -0.0056861468008 
-0.0010835776541 0.0016184229778 0.0068653676502 -0.00052774094008 0.00041682816123 0.0041988526811 -0.00019110951672 0.00187234557 0.0016041843366 
0.0014754254761 0.0038960177849 -0.0034282773422 -0.0013943251824 0.0058077966616 -0.0064061270249 -0.0038868871329 0.00034796735022 -0.0025141484202 
0.16574125521 0.049568186052 -0.0029495315902 0.15764262477 0.029271591078 -0.00067223187258 -0.011555761157 0.0054539380752 0.012313045188 
0.0037950528091 0.0023140694814 -0.0057385661991 0.0031152186215 0.0020166684321 -0.0067432315766 0.0010916536247 0.0062749689696 -0.0086722085046 
0.0034021292524 0.0037546030292 -0.010055062076 -0.0012824577555 0.0013153934833 0.0034019349145 -0.00075690762841 0.0046493599457 0.00066595289454 
-0.0020953873078 0.0038447449074 -0.0014020619825 0.0015139612614 0.0038784698763 -0.0078141922848 0.0010953304689 0.0021596248647 -0.0067878082234 
0.0003071231992 -0.003521514821 0.0021709206949 -0.0023361456137 -0.0021246941421 0.0057180521065 0.00056441085277 0.0048238791293 -0.0010548796956 
0.0021400348007 -0.002952164179 -0.003878347084 0.0022620128054 0.0014595910056 -0.0026076149484 0.0041910938516 0.0067730928489 -0.0076359634122 
0.0034105440146 0.0068269074586 -0.0052111708664 0.0022992688521 0.0016343271827 -0.0045808456131 -0.0012505796312 -0.0064804055347 -0.0014584244709 
-0.0044944182323 0.00069172021961 0.00016083705691 -0.0016163371378 0.0038298566214 0.0014237438821 -0.0011338036679 0.0051874230261 -0.00054585037415 
0.0025333400943 0.0043116346546 -0.005424250306 0.0023622988731 0.0022317449092 -0.010157292865 0.0045483100549 -0.0004420948137 -0.0089172812579 
0.0017591313161 0.00018569753561 -0.005023183776 0.0080621085184 -0.0037963125727 -0.0078820124886 -0.0067932578817 0.00243681033 -0.0048356765766 
-0.0036243758333 0.0078879571982 -0.0053245971896 0.00097355267392 -0.0031458282771 -0.0024207365841 -0.00098561166148 0.0027980216645 -0.0052643489316 
0.00039390035737 0.0060009468838 -0.00022243851598 -0.00104523507 0.004638652505 -0.0064178935497 0.0052134774167 -0.0013239699409 -0.0071531949726 
0.0080455064997 0.0023127767349 -0.021151766361 0.0042515513646 -0.0033650592724 0.001770621757 0.0041567229792 0.0054851372888 0.0016221186445 
0.0061201836461 0.0099371458765 0.0077130479807 0.006774201134 0.010779775862 0.0082023411047 -0.0039117062355 0.0042729106049 -0.0027745261601 
0.0038841346422 -0.0072436952852 -0.019132365591 0.0068377884512 0.0036203116484 -0.0046798810428 0.010543827983 0.0034092852502 0.012387178707 
0.0083378534642 0.0081185718542 0.018451491535 0.0027048307005 -0.0028452061544 -0.0023272588419 0.0071762894882 0.00076599634816 -0.00043347534364 
0.00041724123899 0.0062893629168 -0.0093549006298 0.0026490026591 0.014361733282 0.0029955024111 0.0045774265201 -0.0010018079862 -0.0015196193293 
0.0066744642157 0.00050786796097 0.00040347034758 0.0029857239045 0.001716771508 -0.0063821226412 0.0013892656537 0.0096896998106 -0.0083338628206 
0.0083398895356 0.0028691823127 0.0068865527062 0.0050611981925 0.0033713154893 0.0085099346912 0.0050500744478 -0.002212081555 0.0067203101532 
0.0031879541744 -0.0035001781018 0.0018804832348 0.0035816653387 0.008588257328 -0.002670289062 0.0052373748648 0.0058053855028 -0.0080282967368 
0.0018677214138 0.0016711365294 -0.0041130099289 0.0020470269679 0.001142214473 -0.0046986667467 -0.00051814258394 -0.0002732868616 -0.0061744866206 
0.0017000075168 -0.0028045310362 -0.007190247728 0.0010233020341 8.4611852608e-05 0.0031886019055 0.00041261923147 -0.00052843722305 0.0047498826258 
0.0020354140721 0.0051787850488 -0.0028168267659 0.0010233214528 0.0036382673143 -0.0098885409829 0.0065860923799 0.015483069535 0.0085735297597 